/*--------------------------------*- C++ -*----------------------------------*\
| =========                 |                                                 |
| \\      /  F ield         | OpenFOAM: The Open Source CFD Toolbox           |
|  \\    /   O peration     | Version:                                        |
|   \\  /    A nd           | Website:  www.openfoam.com                      |
|    \\/     M anipulation  |                                                 |
\*---------------------------------------------------------------------------*/
FoamFile
{
    version     2.0;
    format      ascii;
    class       volScalarField;
    location    "1.5";
    object      epsilon;
}
// * * * * * * * * * * * * * * * * * * * * * * * * * * * * * * * * * * * * * //

dimensions      [0 2 -3 0 0 0 0];


internalField   nonuniform List<scalar> 
3875
(
19.7271
20.4075
21.1174
21.8288
22.539
23.2355
23.9406
24.6301
25.3253
26.0013
26.6813
27.3393
28.0001
28.6362
29.2741
29.8852
30.4972
31.0804
31.6643
32.2176
32.7714
33.2934
33.8157
34.3053
34.7954
35.2523
35.7098
36.134
36.5587
36.9508
37.3429
37.7037
38.0637
38.3945
38.7231
39.0253
39.3231
39.5985
39.8662
40.1165
40.3546
40.5813
40.7891
40.9929
41.1665
41.3447
41.4742
41.6119
41.7129
41.7845
21.972
22.7282
23.4552
24.1489
24.822
25.4689
26.1008
26.7113
27.3094
27.8875
28.4546
29.0026
29.5409
30.0605
30.5715
31.0641
31.5489
32.0154
32.4751
32.9159
33.3507
33.7665
34.1772
34.5687
34.9562
35.324
35.689
36.0338
36.3772
36.6995
37.0219
37.3225
37.6248
37.9042
38.1873
38.4463
38.7112
38.9501
39.1982
39.417
39.6501
39.8483
40.0675
40.2448
40.4489
40.6046
40.7805
40.9089
40.9933
41.0811
21.197
21.9784
22.7362
23.4636
24.1705
24.8512
25.5156
26.1565
26.7838
27.3888
27.9823
28.5539
29.1157
29.6557
30.1872
30.6969
31.1994
31.6798
32.1544
32.6065
33.0542
33.4789
33.9008
34.2989
34.696
35.0685
35.4421
35.7899
36.1407
36.4648
36.7946
37.0959
37.4059
37.6853
37.9768
38.2351
38.5096
38.7474
39.0063
39.2244
39.4687
39.6682
39.8994
40.08
40.3
40.4586
40.6697
40.7819
40.9724
40.8898
21.9715
22.729
23.4546
24.1497
24.8213
25.4698
26.1
26.7123
27.3086
27.8885
28.4537
29.0038
29.5399
30.0618
30.5703
31.0655
31.5476
32.0171
32.4736
32.9177
33.349
33.7685
34.1753
34.571
34.954
35.3265
35.6865
36.0366
36.3744
36.7026
37.0188
37.3259
37.6213
37.908
38.1835
38.4505
38.707
38.9551
39.1935
39.4235
39.6449
39.8576
40.0636
40.2597
40.4535
40.6381
40.8199
41.0131
41.1392
41.4075
19.7253
20.4099
21.1156
21.8312
22.5369
23.2381
23.9384
24.6329
25.3229
26.0043
26.6787
27.3426
27.9972
28.6398
29.2709
29.889
30.4937
31.0845
31.6604
32.2221
32.7671
33.2982
33.811
34.3106
34.7903
35.2581
35.7041
36.1402
36.5526
36.9573
37.3364
37.7106
38.057
38.4017
38.7162
39.0326
39.3165
39.6061
39.8604
40.1252
40.3512
40.5944
40.7925
41.0211
41.1897
41.4206
41.5677
41.8344
42.0529
42.3509
21.9724
22.728
23.4555
24.1486
24.8222
25.4687
26.101
26.711
27.3096
27.8872
28.4548
29.0024
29.541
30.0604
30.5715
31.0641
31.5487
32.0158
32.4747
32.9164
33.3501
33.7672
34.1764
34.5698
34.955
35.3254
35.6874
36.0357
36.375
36.702
37.0191
37.3258
37.6211
37.9084
38.1826
38.4515
38.7053
38.9565
39.1908
39.4247
39.6404
39.8568
40.0542
40.2524
40.4287
40.6069
40.7518
40.9105
40.9903
40.7171
2.60682
3.52366
4.19645
4.7431
5.21108
5.61819
5.97738
6.29584
6.58159
6.83792
7.07011
7.27968
7.47054
7.64341
7.80126
7.94452
8.07541
8.19441
8.30356
8.40488
8.49724
8.5837
8.66164
8.73549
8.80102
8.86414
8.91891
8.97334
9.01893
9.06577
9.10352
9.14401
9.17532
9.2105
9.23681
9.2675
9.29027
9.31733
9.33809
9.36316
9.38335
9.41066
9.43431
9.47475
9.51696
9.59139
9.68945
9.83114
9.94502
10.0809
2.26526
2.85821
3.33856
3.74046
4.11716
4.45904
4.77089
5.05334
5.31241
5.54874
5.76785
5.96644
6.15117
6.31737
6.47249
6.61055
6.73992
6.85336
6.96004
7.05149
7.13847
7.21095
7.28111
7.33733
7.39316
7.43546
7.47905
7.50954
7.54277
7.56351
7.58786
7.60062
7.61708
7.62359
7.63279
7.6349
7.63703
7.63551
7.634
7.62723
7.62312
7.6126
7.60774
7.59283
7.58828
7.57198
7.57439
7.59948
7.5914
8.23895
2.60671
3.52384
4.19631
4.74331
5.21093
5.6184
5.97724
6.29604
6.58148
6.83809
7.07004
7.27979
7.47054
7.64343
7.80137
7.94441
8.07567
8.19411
8.30401
8.40439
8.49789
8.58298
8.66253
8.73453
8.80217
8.86292
8.92029
8.9719
9.02051
9.06415
9.1052
9.14225
9.17693
9.20863
9.23796
9.26534
9.29008
9.31384
9.33433
9.3544
9.3701
9.38386
9.39027
9.40014
9.3969
9.39619
9.35434
9.31849
9.26384
9.6698
21.9711
22.7299
23.4539
24.1507
24.8204
25.471
26.099
26.7136
27.3073
27.89
28.4523
29.0055
29.5382
30.0637
30.5684
31.0677
31.5454
32.0195
32.471
32.9205
33.346
33.7718
34.1718
34.5748
34.95
35.331
35.6817
36.0418
36.3687
36.7088
37.0121
37.3332
37.6134
37.9167
38.1741
38.4609
38.6957
38.9675
39.1802
39.4385
39.6296
39.8767
40.0458
40.2792
40.4096
40.6019
40.6233
40.5202
40.3161
38.2307
21.1972
21.9787
22.7357
23.4636
24.1702
24.8515
25.5152
26.1568
26.7833
27.3893
27.9817
28.5545
29.115
29.6564
30.1863
30.6978
31.1983
31.6809
32.1531
32.6078
33.0527
33.4804
33.899
34.3007
34.694
35.0706
35.4398
35.7922
36.1382
36.4675
36.7918
37.0989
37.4027
37.6886
37.9733
38.2386
38.5057
38.7511
39.0021
39.2273
39.4647
39.6678
39.8949
40.0723
40.2894
40.4392
40.6267
40.8106
40.9078
41.1972
2.26506
2.85856
3.33782
3.74331
4.11753
4.45941
4.77072
5.05371
5.3121
5.54924
5.7674
5.9671
6.15056
6.31823
6.47168
6.61164
6.73888
6.8547
6.95872
7.0531
7.13686
7.21285
7.2792
7.33951
7.39097
7.43791
7.47661
7.5122
7.54017
7.56625
7.58529
7.60323
7.61487
7.62575
7.6315
7.63625
7.63761
7.63726
7.63519
7.6333
7.62866
7.62895
7.63236
7.63913
7.6728
7.70912
7.80002
7.9034
7.90206
7.92143
1.88173
2.00352
2.20725
2.42822
2.65025
2.86593
3.07259
3.26757
3.45055
3.62062
3.77908
3.92507
4.06035
4.18392
4.29782
4.40083
4.49523
4.57951
4.65625
4.72355
4.78435
4.83639
4.88293
4.92141
4.9553
4.98183
5.00453
5.02068
5.03351
5.04078
5.04488
5.04367
5.04124
5.03374
5.02532
5.01204
4.99794
4.98038
4.96124
4.94065
4.91673
4.89445
4.8661
4.84447
4.81246
4.79574
4.76318
4.76997
4.84723
4.62742
2.26496
2.85872
3.33767
3.74355
4.11735
4.4597
4.77049
5.05405
5.31182
5.54963
5.76707
5.96754
6.15018
6.31871
6.47126
6.61215
6.73842
6.85523
6.95824
7.05365
7.13636
7.21341
7.27868
7.3401
7.39042
7.43853
7.47602
7.51286
7.53953
7.56692
7.5846
7.60389
7.61407
7.62626
7.63042
7.63615
7.6362
7.63371
7.62959
7.62509
7.61278
7.60018
7.5754
7.54775
7.48915
7.44
7.36652
7.21726
7.03337
6.68162
21.1962
21.9802
22.7345
23.4653
24.1687
24.8533
25.5136
26.1589
26.7815
27.3916
27.9796
28.5571
29.1126
29.6592
30.1837
30.7008
31.1955
31.6841
32.1501
32.6113
33.0494
33.4842
33.8954
34.3047
34.69
35.075
35.4354
35.7971
36.1332
36.473
36.7859
37.1054
37.3957
37.6965
37.9646
38.2486
38.495
38.7638
38.9891
39.244
39.4504
39.6922
39.8809
40.1142
40.2888
40.4832
40.5943
40.4461
39.6441
38.4169
21.9723
22.7282
23.4553
24.1488
24.822
25.4689
26.1007
26.7114
27.3093
27.8876
28.4544
29.0029
29.5406
30.0609
30.571
31.0646
31.5483
32.0161
32.4743
32.9168
33.3496
33.7677
34.1758
34.5703
34.9544
35.3261
35.6867
36.0364
36.3743
36.7027
37.0185
37.3262
37.6207
37.9087
38.1825
38.4515
38.7054
38.9563
39.191
39.4244
39.6406
39.8568
40.0542
40.2525
40.4287
40.607
40.7504
40.9201
40.9498
40.9328
2.60682
3.52372
4.19638
4.74316
5.21101
5.61828
5.97727
6.29598
6.58143
6.83815
7.06986
7.28001
7.47017
7.64388
7.80071
7.94519
8.07462
8.19536
8.30261
8.40598
8.49612
8.58496
8.66031
8.73697
8.79944
8.86589
8.91708
8.97534
9.01682
9.06805
9.10113
9.14656
9.17266
9.21329
9.23395
9.27042
9.28739
9.32007
9.33571
9.36484
9.38271
9.40956
9.43799
9.46661
9.53147
9.56318
9.73918
9.73968
10.1047
9.50614
2.26523
2.85831
3.33859
3.73999
4.11695
4.45904
4.77078
5.05342
5.3123
5.54887
5.76772
5.9666
6.15102
6.31755
6.47231
6.61076
6.73972
6.85358
6.95982
7.05172
7.13823
7.21119
7.28086
7.33759
7.3929
7.43574
7.47878
7.50983
7.54249
7.5638
7.58759
7.6009
7.61682
7.62384
7.63259
7.63505
7.63697
7.63551
7.63425
7.62677
7.62321
7.6128
7.60734
7.59288
7.58737
7.57056
7.57189
7.59354
7.58612
8.21381
2.60672
3.52388
4.19627
4.74332
5.21092
5.61841
5.97722
6.29605
6.58147
6.83811
7.07004
7.27981
7.47054
7.64345
7.80137
7.94441
8.07569
8.19409
8.30404
8.40436
8.49794
8.58293
8.6626
8.73445
8.80227
8.86282
8.9204
8.97179
9.02064
9.06402
9.10535
9.1421
9.1771
9.2085
9.23807
9.26531
9.29007
9.3139
9.33429
9.35455
9.3701
9.38486
9.39026
9.39994
9.39621
9.39513
9.35309
9.31512
9.25637
9.65583
21.9711
22.7299
23.4539
24.1507
24.8204
25.471
26.099
26.7136
27.3073
27.89
28.4523
29.0055
29.5382
30.0637
30.5684
31.0677
31.5454
32.0195
32.471
32.9205
33.346
33.7717
34.1719
34.5747
34.9501
35.3309
35.6819
36.0417
36.3688
36.7087
37.0122
37.3331
37.6135
37.9166
38.1741
38.4608
38.6958
38.9674
39.1804
39.4382
39.6299
39.8762
40.0468
40.2787
40.4097
40.6025
40.6248
40.5214
40.3171
38.228
19.7271
20.4076
21.1174
21.8288
22.539
23.2355
23.9406
24.6301
25.3253
26.0013
26.6813
27.3393
28.0001
28.6362
29.2742
29.8851
30.4972
31.0804
31.6643
32.2176
32.7714
33.2934
33.8157
34.3054
34.7954
35.2524
35.7097
36.134
36.5587
36.9508
37.3429
37.7037
38.0638
38.3944
38.7232
39.0252
39.3232
39.5984
39.8662
40.1165
40.3544
40.5815
40.7889
40.9931
41.1667
41.3448
41.475
41.6196
41.6821
41.8139
21.972
22.7282
23.4552
24.1489
24.822
25.4689
26.1007
26.7113
27.3093
27.8875
28.4545
29.0027
29.5408
30.0606
30.5714
31.0642
31.5488
32.0156
32.4749
32.9161
33.3505
33.7667
34.177
34.5691
34.9559
35.3244
35.6886
36.0342
36.3767
36.6999
37.0215
37.3228
37.6245
37.9043
38.1872
38.4462
38.7113
38.9499
39.1983
39.417
39.6499
39.8486
40.0671
40.2454
40.4486
40.6048
40.7815
40.911
40.9943
41.0782
21.197
21.9784
22.7361
23.4636
24.1704
24.8512
25.5155
26.1565
26.7837
27.3889
27.9822
28.5541
29.1156
29.6558
30.1871
30.697
31.1993
31.6799
32.1543
32.6066
33.0542
33.4789
33.9007
34.2989
34.6959
35.0686
35.442
35.7899
36.1407
36.4648
36.7946
37.0958
37.4059
37.6852
37.9769
38.2349
38.5097
38.7473
39.0063
39.2244
39.469
39.6678
39.8995
40.0798
40.3003
40.4584
40.6702
40.7825
40.973
40.8911
21.9715
22.7291
23.4546
24.1498
24.8213
25.4699
26.1
26.7124
27.3085
27.8886
28.4536
29.0039
29.5398
30.0619
30.5702
31.0656
31.5474
32.0172
32.4734
32.9178
33.3488
33.7687
34.1751
34.5712
34.9538
35.3268
35.6863
36.0369
36.374
36.703
37.0184
37.3263
37.6208
37.9085
38.1829
38.4512
38.7062
38.9559
39.1925
39.4244
39.6437
39.8586
40.0624
40.2608
40.4525
40.6392
40.8195
41.0134
41.1396
41.4144
19.7253
20.4099
21.1156
21.8312
22.5369
23.2381
23.9384
24.6329
25.3229
26.0043
26.6786
27.3426
27.9971
28.6398
29.2709
29.889
30.4936
31.0846
31.6603
32.2222
32.767
33.2983
33.8109
34.3107
34.7903
35.2581
35.7042
36.1401
36.5527
36.9572
37.3365
37.7105
38.057
38.4017
38.716
39.033
39.3157
39.6071
39.8589
40.127
40.3489
40.5966
40.7903
41.0227
41.1893
41.4197
41.5694
41.8385
42.0337
42.3808
41.8833
41.1013
39.7132
43.7539
79.906
40.4833
40.1779
37.6795
44.8961
85.6655
40.8752
39.5438
38.3199
46.034
66.1717
41.0406
40.944
38.5355
53.2067
76.1946
43.0756
42.7736
42.1145
52.3102
88.4932
40.5583
33.8705
40.8517
151.764
255.954
9.97843
15.4821
32.978
171.73
273.464
7.75831
16.1686
30.4745
125.421
281.836
11.4934
15.2255
59.9665
201.214
318.697
30.3278
31.2712
54.9913
231.421
371.229
39.6381
31.3304
39.9001
159.101
315.941
8.49588
9.80017
35.7561
181.477
345.122
6.57526
9.02079
45.3518
140.002
384.2
9.09769
14.266
63.6003
217.385
422.662
31.0181
29.8084
58.1408
255.22
472.678
40.2592
33.6542
41.2581
150.608
252.072
11.5067
11.6168
36.7399
168.977
270.01
7.75098
16.118
30.2112
124.885
281.126
11.4734
15.1244
60.8573
201.207
318.931
30.3236
31.2621
55.1886
231.668
371.57
41.8955
41.1019
39.6732
43.3426
78.1916
40.4885
40.2132
37.6361
44.4367
84.5129
40.8772
39.5467
38.3267
46.0396
66.1369
41.0283
40.9314
38.5589
53.6165
76.2879
43.183
42.6866
42.0829
52.4614
88.6114
6.57138
19.3629
27.7114
29.8535
27.4772
6.859
20.6695
30.0043
31.9687
29.1543
6.98835
21.3452
30.8553
33.1175
30.0748
7.25582
22.5895
32.7947
35.0922
31.6114
7.4255
23.424
34.0612
36.4138
32.617
7.71369
24.7791
36.1181
38.5537
34.2584
7.92984
25.8524
37.7299
40.1858
35.4545
8.24696
27.3554
39.9915
42.5136
37.2009
8.5162
28.6992
41.9804
44.4897
38.6024
8.87351
30.4105
44.5233
47.0594
40.4766
9.20482
32.0641
46.9381
49.412
42.0928
9.61706
34.0515
49.8475
52.2818
44.1166
10.0235
36.0647
52.7512
55.046
45.9545
10.5113
38.3998
56.121
58.2713
48.1439
11.0119
40.8314
59.5914
61.479
50.2041
11.5873
43.5973
63.5256
65.103
52.5646
12.1832
46.5212
67.6571
68.7699
54.8348
12.8555
49.7869
72.2753
72.8071
57.3537
13.5538
53.2431
77.191
76.9114
59.8015
14.3342
57.0373
82.618
81.3295
62.4411
15.1601
61.0966
88.3402
85.8209
65.0065
16.0709
65.53
94.5535
90.5421
67.6966
17.0322
70.2474
101.084
95.2669
70.2866
18.0853
75.3466
108.053
100.082
72.9236
19.1925
80.7301
115.292
104.758
75.4158
20.3953
86.4711
122.855
109.307
77.8713
21.6598
92.4626
130.548
113.478
80.1293
23.0426
98.7402
138.343
117.217
82.2747
24.5333
105.171
145.994
120.242
84.1813
26.2889
111.742
153.368
122.413
85.9276
28.4773
118.269
160.152
123.329
87.4322
30.9523
124.618
166.108
123.597
88.782
33.6134
130.528
170.614
122.279
89.9435
36.4932
135.813
173.024
120.084
91.0329
39.4734
140.453
173.754
116.489
91.971
42.5674
144.045
172.026
112.306
92.9154
45.5843
146.124
167.46
106.18
93.7587
48.5445
146.911
160.644
99.3893
94.6869
51.2191
146.296
150.869
91.4383
95.4785
53.5862
145.029
138.096
83.6916
96.2478
55.5798
144.49
121.676
76.1906
96.5891
56.0473
139.926
101.646
69.2573
96.7037
55.6038
133.926
83.1264
62.8998
96.6627
53.7053
122.851
64.2877
57.1282
95.8687
50.2326
106.909
49.4165
52.1693
94.6959
46.3296
88.7527
39.8415
47.6176
92.6598
40.7499
73.4344
35.4647
44.7711
90.0343
37.2251
51.5237
32.6629
43.253
86.369
29.5365
23.9559
31.7895
43.0456
81.7494
28.8107
32.6178
37.3531
43.4523
80.0866
13.2967
19.3913
21.0646
19.4254
29.1926
14.1425
21.0797
23.1247
21.3956
31.3642
14.5159
21.9672
24.2213
22.4812
32.5431
15.2999
23.5322
26.1371
24.3512
34.598
15.8176
24.695
27.5806
25.738
35.9942
16.6477
26.3971
29.677
27.8134
38.25
17.3184
27.8899
31.5454
29.6098
40.0142
18.2293
29.8139
33.9322
31.9772
42.5125
19.0657
31.6751
36.277
34.2419
44.6968
20.0999
33.9196
39.084
37.0189
47.5179
21.1257
36.2165
41.9931
39.839
50.1833
22.3327
38.8914
45.366
43.1633
53.4218
23.5852
41.7217
48.9675
46.6618
56.6436
25.0224
44.9569
53.0778
50.6975
60.4043
26.5524
48.4498
57.5422
55.0366
64.2693
28.2852
52.4019
62.5954
59.9808
68.6605
30.1587
56.7228
68.1449
65.3635
73.2567
32.2648
61.583
74.4038
71.4485
78.3758
34.5625
66.934
81.3131
78.1167
83.7732
37.1356
72.93
89.0775
85.6081
89.6803
39.9592
79.5622
97.6754
93.8328
95.8951
43.1092
86.9729
107.317
103.005
102.569
46.5747
95.1816
118.011
113.056
109.51
50.4263
104.325
129.905
124.226
116.787
54.6647
114.457
143.085
136.378
124.189
59.3616
125.719
157.736
149.676
131.688
64.5218
138.185
173.905
163.98
139.03
70.2138
152.01
191.785
179.326
146.096
76.4796
167.288
211.409
195.454
152.579
83.536
184.214
232.93
212.2
158.301
91.6064
202.671
256.315
229.067
162.961
101.323
222.924
281.638
245.564
166.148
112.415
244.88
308.738
260.802
167.849
124.692
268.547
337.519
273.865
168.347
138.068
293.719
367.622
283.33
167.582
152.425
320.103
398.573
287.17
165.786
167.272
346.933
429.702
288.191
163.044
182.197
373.201
459.226
281.394
160.154
196.005
396.815
484.673
268.614
157.361
207.841
415.007
499.764
250.265
155.726
213.588
423.663
505.56
225.738
154.407
211.565
423.195
497.618
196.407
154.285
203.626
410.326
467.419
165.272
155.316
184.2
387.771
410.76
134.909
156.932
159.79
349.544
329.178
110.956
160.212
135.908
309.632
235.259
90.2777
164.472
111.991
285.669
147.696
79.32
171.764
90.7254
233.235
75.6938
74.1004
183.893
56.9004
74.3779
45.517
76.6976
198.722
36.1126
39.7786
38.8786
106.357
225.847
15.1846
19.0227
19.5852
17.8503
28.9543
16.1785
20.6856
21.493
19.6754
31.1718
16.614
21.5542
22.5104
20.6704
32.3741
17.5253
23.0783
24.2713
22.3953
34.4823
18.1332
24.2318
25.6325
23.701
35.9266
19.0948
25.8803
27.5507
25.6108
38.2469
19.8819
27.3546
29.3086
27.3126
40.0889
20.9349
29.2172
31.4959
29.5015
42.6717
21.914
31.0458
33.694
31.6538
44.9711
23.1085
33.2192
36.2745
34.2422
47.9097
24.305
35.4668
38.995
36.9326
50.7372
25.6977
38.0581
42.1072
40.0608
54.1427
27.1534
40.821
45.4738
43.4164
57.5888
28.8099
43.9572
49.283
47.2546
61.5879
30.5837
47.3633
53.4652
51.4468
65.762
32.5798
51.1988
58.1732
56.2022
70.4917
34.7462
55.4114
63.3717
61.4503
75.5132
37.1666
60.1369
69.2108
67.3784
81.1085
39.819
65.3644
75.701
73.9515
87.0892
42.7775
71.2158
82.9842
81.3466
93.6581
46.0317
77.715
91.1014
89.5677
100.667
49.6531
84.9796
100.201
98.7839
108.246
53.6446
93.0631
110.349
109.017
116.253
58.0728
102.087
121.703
120.426
124.742
62.9556
112.136
134.366
133.027
133.539
68.3587
123.341
148.51
146.949
142.605
74.3107
135.811
164.234
162.195
151.708
80.8825
149.698
181.731
178.805
160.704
88.1297
165.134
201.116
196.674
169.285
96.1697
182.262
222.552
215.698
177.216
105.381
201.232
246.135
235.556
184.14
116.712
222.225
271.971
255.854
189.789
129.559
245.248
300.048
275.901
193.839
143.709
270.331
330.322
294.853
195.733
159.085
297.321
362.539
311.558
196.424
175.509
325.897
396.222
323.56
195.632
192.559
355.328
430.599
330.166
193.435
209.669
384.396
464.293
331.578
190.483
225.248
410.688
494.59
323.901
186.249
238.188
431.314
516.203
307.345
182.441
245.145
441.893
525.296
282.045
178.389
242.687
442.019
523.066
249.023
175.77
232.934
427.401
495.526
209.808
174.483
210.72
399.706
438.283
169.29
174.303
180.463
357.936
351.06
134.572
177.571
150.819
313.579
249.087
104.293
182.173
123.817
287.123
154.186
87.9369
191.922
99.9537
231.789
77.625
79.3951
207.06
61.73
76.9905
46.1126
79.1829
229.196
37.8727
38.9999
38.8289
110.418
266.422
13.1214
19.3094
21.0997
19.6219
29.353
13.9581
20.9815
23.1553
21.6052
31.5282
14.3265
21.8575
24.248
22.6999
32.7089
15.0997
23.4058
26.159
24.581
34.7663
15.6093
24.5564
27.5997
25.9771
36.1624
16.4269
26.2393
29.6902
28.0644
38.4194
17.087
27.7161
31.5548
29.8709
40.1818
17.9829
29.6184
33.9349
32.2508
42.6797
18.8059
31.4595
36.2744
34.526
44.8613
19.8221
33.679
39.0737
37.3159
47.6798
20.8307
35.9517
41.9757
40.1467
50.3394
22.0165
38.5983
45.3392
43.4835
53.5716
23.2471
41.4005
48.931
46.992
56.7829
24.6585
44.604
53.0291
51.0387
60.5315
26.1627
48.066
57.4797
55.3856
64.3789
27.8667
51.9845
62.5212
60.3371
68.7493
29.7119
56.2725
68.0607
65.722
73.3176
31.7879
61.0963
74.3047
71.8058
78.4034
34.057
66.4137
81.2018
78.4697
83.7578
36.5983
72.3747
88.9547
85.9515
89.614
39.391
78.9734
97.5445
94.156
95.7655
42.5099
86.3541
107.177
103.298
102.365
45.9447
94.5382
117.849
113.316
109.217
49.7644
103.667
129.743
124.41
116.391
53.9712
113.795
142.919
136.466
123.67
58.6294
125.068
157.569
149.629
131.035
63.7438
137.564
173.738
163.75
138.224
69.3921
151.448
191.619
178.854
145.126
75.7071
166.834
211.238
194.663
151.436
82.7928
183.698
232.733
211.002
156.981
91.0285
202.287
256.099
227.375
161.452
100.908
222.642
281.373
243.281
164.665
112.053
244.726
308.403
257.84
166.137
124.34
268.524
337.055
270.182
166.672
137.645
293.802
366.977
278.93
165.992
151.86
320.199
397.674
282.276
164.258
166.403
346.813
428.225
282.971
161.66
180.828
372.495
456.994
275.928
158.992
193.804
395.005
481.41
263.521
156.349
204.185
411.119
495.648
245.854
154.587
208.494
418.552
501.027
222.275
153.832
205.797
415.174
493.22
194.321
153.54
196.588
400.223
464.706
164.207
154.437
180.302
373.029
411.045
134.508
155.946
151.033
341.046
330.716
110.293
159.035
127.259
308.542
233.399
90.2379
163.182
105.441
288.475
149.836
79.263
170.192
88.4387
236.815
77.4813
73.9976
182.087
57.0816
77.4482
45.946
76.2143
196.443
36.1642
38.8397
38.7732
105.837
222.816
6.01129
18.4533
27.1873
29.8152
27.5475
6.27021
19.6998
29.4445
31.9274
29.2157
6.38624
20.3403
30.2826
33.074
30.133
6.62692
21.5286
32.195
35.0461
31.6606
6.77889
22.3241
33.4443
36.3649
32.6591
7.03811
23.6174
35.4736
38.5015
34.2895
7.23146
24.6432
37.0658
40.13
35.4748
7.51639
26.079
39.2989
42.4535
37.2065
7.75714
27.366
41.2658
44.425
38.5915
8.07754
29.0042
43.7794
46.9891
40.4463
8.37325
30.5923
46.1697
49.3357
42.0403
8.7412
32.5022
49.0481
52.1983
44.0388
9.1011
34.4445
51.9237
54.9546
45.8478
9.53037
36.7022
55.259
58.1706
48.0051
9.96576
39.0634
58.6945
61.368
50.0288
10.472
41.7493
62.5855
64.9805
52.3493
10.9981
44.5983
66.6688
68.6349
54.5746
11.6028
47.7841
71.2251
72.659
57.0453
12.2471
51.17
76.0632
76.75
59.4397
12.9606
54.9007
81.4175
81.1461
62.0227
13.7103
58.8515
87.1285
85.5929
64.5269
14.5521
63.2002
93.2885
90.277
67.1543
15.435
67.8286
99.8034
94.9453
69.6777
16.4118
72.8462
106.737
99.7073
72.2487
17.4459
78.1623
113.967
104.311
74.6732
18.576
83.8425
121.515
108.788
77.0644
19.7732
89.793
129.215
112.874
79.2596
21.093
96.0454
137.021
116.531
81.3491
22.623
102.489
144.701
119.499
83.2051
24.5552
109.078
152.112
121.384
84.91
26.7741
115.655
158.971
122.376
86.3822
29.2298
122.101
165.004
122.55
87.7054
31.8596
128.165
169.751
121.135
88.8431
34.6942
133.612
172.21
118.914
89.9058
37.6735
138.47
173.07
115.304
90.8093
40.7632
142.355
171.781
111.083
91.6984
43.788
144.605
167.43
104.975
92.4776
46.7757
145.467
161.083
98.3188
93.3138
49.2939
144.581
151.649
90.4695
93.9931
51.8407
141.565
139.488
82.8864
94.602
53.0305
137.261
123.421
75.4611
94.8491
52.7875
127.866
104.123
68.671
94.9329
51.8353
116.881
85.8686
62.3404
94.7071
49.9628
102.61
67.6748
56.7138
93.824
46.6023
88.3488
53.8846
51.8309
92.4777
42.5581
77.6511
44.2651
47.5486
90.5848
37.9141
79.047
38.1015
44.4659
87.8154
34.9608
66.7071
33.7939
43.0939
84.4265
27.8747
24.9514
31.8938
42.7543
80.1158
28.2268
32.1581
37.2903
43.1566
78.4129
39.3259
41.3797
42.2242
52.6429
94.5255
44.8244
38.2613
41.0424
53.4587
101.918
58.046
39.26
41.5987
55.5011
109.721
66.2616
92.2984
43.8329
58.1004
117.842
75.7338
175.813
47.2643
62.4473
124.957
81.882
193.219
54.0563
68.5695
130.434
88.5584
195.472
63.0588
75.253
135.122
91.4453
198.38
78.5979
82.457
138.74
94.1251
204.353
96.2437
89.6925
141.561
95.2115
216.11
118.943
97.2911
143.314
95.5489
227.13
138.973
105.005
144.271
94.1559
235.964
162.257
112.622
144.22
91.2477
239.827
183.255
120.346
143.905
87.2789
239.74
202.11
127.651
143.104
83.0973
238.363
218.277
134.733
141.798
78.2394
234.647
230.659
141.266
140.058
72.2824
229.038
238.519
147.06
138.154
66.9954
223.107
243.685
151.536
136.029
62.9642
215.783
243.686
154.959
133.843
59.2972
207.666
242.336
157.293
131.504
55.9525
199.131
238.983
158.767
129.192
52.8363
190.155
233.34
158.93
126.738
49.9773
181.083
226.38
158.513
124.33
47.2756
171.951
218.305
157.412
121.762
44.8028
163.037
209.662
155.484
119.26
42.4525
154.29
200.578
152.824
116.567
40.307
145.95
191.485
149.765
113.967
38.258
137.885
182.334
146.118
111.156
36.396
130.318
173.487
142.284
108.485
34.6074
123.05
164.771
138.009
105.589
32.9944
116.32
156.531
133.759
102.894
31.4327
109.862
148.484
129.182
99.9585
30.037
103.959
141.014
124.816
97.2976
28.6765
98.2775
133.724
120.181
94.3709
27.4782
93.1594
127.082
115.916
91.7986
26.2946
88.1858
120.553
111.382
88.9213
25.2729
83.7889
114.732
107.361
86.4823
24.2414
79.4379
108.912
103.02
83.6817
23.3768
75.693
103.875
99.3282
81.4082
22.4734
71.8726
98.6822
95.2165
78.6984
21.7499
68.7146
94.3758
91.9002
76.6107
20.9509
65.3296
89.7116
88.0191
73.9949
20.3525
62.6988
86.0791
85.0982
72.1049
19.6359
59.6545
81.8401
81.4267
69.5782
19.1494
57.5027
78.8293
78.9057
67.8914
18.4958
54.7041
74.9175
75.4123
65.4461
18.1111
52.987
72.5146
73.267
63.9553
17.4977
50.3277
68.7898
69.9693
61.6214
17.2344
49.1638
67.1554
67.964
60.1489
16.5347
45.9977
62.6346
64.3416
57.5308
41.1608
34.8626
44.1325
205.817
367.284
85.9491
75.6916
53.1144
152.543
347.757
138.952
230.415
70.7273
119.979
320.527
216.777
649.327
152.864
117.943
302.839
262.455
849.429
255.303
121.311
286.824
301.563
913.295
359.001
131.274
275.621
348.178
928.903
472.349
143.898
267.129
381.639
904.924
579.766
163.359
260.33
395.273
876.818
663.68
186.53
254.148
398.729
844.676
721.249
213.051
248.887
390.177
807.671
749.935
239.598
244.069
372.599
763.385
751.585
263.981
239.875
346.841
717.051
740.286
284.037
236.598
317.393
668.716
713.379
298.473
233.537
289.752
618.866
674.585
308.206
231.198
263.307
568.971
629.877
312.205
228.837
239.183
520.421
582.764
311.204
226.985
218.829
474.728
536.065
308.271
224.885
200.596
432.149
491.121
300.921
222.547
184.189
393.303
448.849
291.14
219.914
169.346
358.143
409.889
279.519
216.804
155.899
326.41
374.176
266.507
213.001
143.821
297.91
341.778
252.799
208.62
132.924
272.281
312.358
238.637
203.518
123.149
249.308
285.833
224.548
197.939
114.3
228.624
261.792
210.578
191.768
106.354
210.07
240.155
197.145
185.338
99.124
193.306
220.525
184.13
178.506
92.6209
178.246
202.847
171.904
171.665
86.6649
164.576
186.803
160.186
164.593
81.3073
152.291
172.394
149.308
157.744
76.36
141.071
159.228
138.988
150.778
71.919
131.001
147.397
129.543
144.222
67.7812
121.734
136.519
120.606
137.59
64.088
113.446
126.765
112.528
131.519
60.6143
105.743
117.734
104.854
125.345
57.5411
98.9019
109.68
98.0101
119.86
54.5953
92.4507
102.13
91.437
114.184
52.0329
86.7951
95.4671
85.6802
109.325
49.5032
81.3447
89.1073
80.0341
104.133
47.371
76.672
83.6022
75.2242
99.8994
45.1636
72.0101
78.1815
70.3343
95.1415
43.4048
68.1653
73.6566
66.3526
91.5128
41.4371
64.1059
68.9514
62.0562
87.124
40.0134
60.98
65.2839
58.8119
84.0705
38.2114
57.3515
61.0851
54.9559
79.9816
37.1003
54.8748
58.2009
52.3787
77.4586
35.3886
51.536
54.3356
48.8607
73.6581
34.6419
49.5566
52.064
46.7312
71.3878
32.6778
45.9299
47.8852
42.9813
67.2835
41.0544
34.102
45.3624
225.726
464.84
91.6956
76.5761
54.6419
164.451
426.597
151.181
232.503
73.4869
128.741
383.423
247.764
659.996
158.338
130.986
354.466
304.679
881.071
277.64
136.962
330.679
349.355
957.688
397.812
153.273
314.931
393.272
983.463
526.299
174.702
302.754
437.008
957.753
645.871
202.351
293.677
452.605
926.886
736.152
235.715
286.465
456.362
888.912
791.576
272.494
281.294
445.885
846.224
813.234
307.364
277.2
424.334
796.504
807.76
337.465
274.444
394.03
745.52
786.987
359.996
272.198
362.396
691.461
747.005
374.904
270.8
331.177
636.212
698.185
381.101
269.411
300.758
581.706
645.224
379.996
268.387
272.762
529.435
591.864
373.711
266.693
249.632
480.774
539.911
363.296
264.505
229.044
436.066
490.949
348.634
261.607
210.321
395.55
445.792
331.635
257.742
193.388
359.115
404.735
313.307
252.906
178.103
326.486
367.655
294.296
247.109
164.374
297.355
334.367
275.303
240.518
152.008
271.337
304.506
256.62
233.125
140.901
248.11
277.745
238.715
225.208
130.872
227.311
253.713
221.623
216.764
121.854
208.7
232.196
205.574
208.12
113.669
191.966
212.863
190.451
199.22
106.285
176.951
195.52
176.438
190.422
99.5356
163.375
179.853
163.36
181.57
93.4433
151.168
165.769
151.36
173.054
87.8232
140.061
152.983
140.202
164.6
82.7461
130.067
141.474
130.043
156.657
78.0274
120.904
130.966
120.597
148.802
73.7873
112.679
121.514
112.061
141.591
69.8088
105.066
112.811
104.09
134.42
66.2633
98.2671
105.008
96.9501
128.006
62.88
91.8918
97.7714
90.2184
121.52
59.9141
86.26
91.3255
84.2689
115.91
57.0034
80.8734
85.253
78.5566
110.057
54.5277
76.2066
79.9233
73.6196
105.222
51.982
71.5994
74.7637
68.7246
99.9214
49.9328
67.7452
70.3729
64.6584
95.8197
47.6568
63.7339
65.9061
60.3947
90.9799
45.9932
60.5868
62.3363
57.097
87.5674
43.9005
56.9997
58.3542
53.2896
83.0921
42.6011
54.4985
55.543
50.6922
80.3077
40.6017
51.1858
51.861
47.2062
76.1667
39.7356
49.2036
49.6773
45.1297
73.7033
37.4255
45.5776
45.6698
41.3995
69.2613
41.1544
34.8558
44.2166
205.984
367.692
85.9105
75.6666
53.1511
152.732
347.901
138.884
230.253
70.7444
120.104
320.652
216.681
649.031
152.816
118.05
302.957
262.388
849.414
255.277
121.422
286.951
301.511
913.399
359.075
131.391
275.763
348.097
928.965
472.515
144.053
267.273
381.734
905.006
579.99
163.55
260.474
395.286
876.931
663.914
186.757
254.289
398.786
844.805
721.447
213.293
249.024
390.247
807.814
750.108
239.844
244.2
372.657
763.513
751.711
264.204
239.998
346.892
717.177
740.404
284.231
236.713
317.447
668.829
713.483
298.63
233.641
289.8
618.969
674.677
308.332
231.29
263.347
569.059
629.958
312.294
228.913
239.216
520.5
582.841
311.281
227.047
218.857
474.797
536.138
308.328
224.932
200.618
432.209
491.188
300.96
222.581
184.207
393.355
448.911
291.167
219.937
169.362
358.189
409.947
279.539
216.819
155.912
326.45
374.229
266.524
213.009
143.832
297.944
341.826
252.814
208.623
132.933
272.312
312.403
238.652
203.518
123.157
249.335
285.875
224.564
197.937
114.306
228.648
261.831
210.595
191.765
106.36
210.091
240.192
197.163
185.334
99.1295
193.326
220.559
184.149
178.501
92.6259
178.264
202.879
171.922
171.66
86.6694
164.592
186.833
160.205
164.588
81.3113
152.306
172.421
149.327
157.739
76.3636
141.085
159.254
139.006
150.773
71.9222
131.014
147.421
129.561
144.217
67.7838
121.746
136.541
120.623
137.585
64.0902
113.457
126.785
112.544
131.514
60.616
105.753
117.753
104.869
125.34
57.5424
98.911
109.697
98.0245
119.857
54.5963
92.4591
102.146
91.4504
114.181
52.0336
86.8028
95.4819
85.6927
109.323
49.5037
81.3517
89.1208
80.0456
104.131
47.3712
76.6783
83.6146
75.2349
99.8991
45.1638
72.0158
78.1926
70.3442
95.1424
43.4047
68.1707
73.667
66.3621
91.5147
41.4373
64.1104
68.9605
62.0647
87.127
40.0132
60.9847
65.2928
58.8205
84.0742
38.2118
57.3546
61.0923
54.9632
79.9866
37.1002
54.8793
58.2089
52.3867
77.4639
35.3889
51.5382
54.3412
48.8671
73.6644
34.6421
49.5609
52.0713
46.7388
71.3941
32.6781
45.9322
47.8903
42.987
67.2901
39.3575
41.354
42.1997
52.7543
94.6214
44.7999
38.2543
41.169
53.5431
101.981
58.0368
39.2511
41.4513
55.597
109.782
66.2642
92.1996
43.7564
58.1891
117.933
75.783
175.756
47.1053
62.5371
125.079
82.064
193.138
54.0013
68.6725
130.578
88.3159
195.453
63.0275
75.37
135.284
91.587
198.409
78.5863
82.5793
138.887
93.9928
204.375
96.2844
89.8222
141.721
95.2646
216.157
119.02
97.4138
143.44
95.5634
227.196
139.078
105.13
144.409
94.1696
236.034
162.375
112.745
144.356
91.258
239.901
183.377
120.468
144.033
87.2881
239.813
202.237
127.767
143.219