/*--------------------------------*- C++ -*----------------------------------*\
| =========                 |                                                 |
| \\      /  F ield         | OpenFOAM: The Open Source CFD Toolbox           |
|  \\    /   O peration     | Version:                                        |
|   \\  /    A nd           | Website:  www.openfoam.com                      |
|    \\/     M anipulation  |                                                 |
\*---------------------------------------------------------------------------*/
FoamFile
{
    version     2.0;
    format      ascii;
    class       volScalarField;
    location    "1.5";
    object      k;
}
// * * * * * * * * * * * * * * * * * * * * * * * * * * * * * * * * * * * * * //

dimensions      [0 2 -2 0 0 0 0];


internalField   nonuniform List<scalar> 
3875
(
0.213222
0.218087
0.223113
0.228095
0.233016
0.237792
0.242579
0.247214
0.251845
0.256306
0.260756
0.265025
0.269278
0.273341
0.277385
0.281231
0.285058
0.28868
0.292285
0.29568
0.299059
0.302226
0.305379
0.30832
0.31125
0.313968
0.316679
0.319182
0.321679
0.323975
0.326263
0.328361
0.330449
0.332361
0.334254
0.335991
0.337699
0.339273
0.340801
0.342225
0.343579
0.344864
0.346041
0.34719
0.348172
0.349172
0.349904
0.350691
0.351096
0.351897
0.229106
0.234322
0.23929
0.243984
0.248497
0.252796
0.25696
0.260951
0.264832
0.268556
0.272184
0.275668
0.279068
0.282331
0.285521
0.288579
0.291574
0.294441
0.297253
0.299937
0.302572
0.305082
0.307552
0.309896
0.312208
0.314394
0.316556
0.318592
0.320613
0.322504
0.324391
0.326144
0.327903
0.329525
0.331164
0.332659
0.334187
0.335559
0.336984
0.338235
0.339569
0.340698
0.341948
0.342953
0.34412
0.344974
0.346042
0.346593
0.347479
0.346721
0.223689
0.22914
0.234373
0.239345
0.244129
0.248692
0.253105
0.257325
0.261424
0.265346
0.269165
0.272818
0.276384
0.27979
0.283123
0.286301
0.289417
0.29238
0.295293
0.298054
0.300777
0.303347
0.305891
0.308281
0.310656
0.312876
0.315094
0.317153
0.319222
0.321128
0.323061
0.324823
0.32663
0.328255
0.329946
0.33144
0.333025
0.334395
0.335883
0.337133
0.338532
0.339671
0.34099
0.34202
0.343262
0.344184
0.345324
0.346085
0.34687
0.347357
0.229102
0.234327
0.239285
0.243989
0.248492
0.252802
0.256955
0.260958
0.264826
0.268563
0.272179
0.275675
0.279061
0.282339
0.285513
0.288588
0.291566
0.294452
0.297244
0.299948
0.302562
0.305094
0.30754
0.309909
0.312195
0.314409
0.316542
0.318608
0.320597
0.322523
0.324373
0.326164
0.327883
0.329547
0.331142
0.332684
0.334162
0.335588
0.336956
0.338274
0.339537
0.340754
0.341922
0.343046
0.344133
0.345193
0.34622
0.347249
0.348246
0.348729
0.21321
0.218103
0.2231
0.228112
0.233002
0.23781
0.242564
0.247233
0.251829
0.256326
0.260739
0.265046
0.269259
0.273363
0.277365
0.281255
0.285036
0.288706
0.292261
0.295707
0.299032
0.302255
0.30535
0.308351
0.311219
0.314002
0.316646
0.319218
0.321643
0.324013
0.326226
0.328401
0.330411
0.332401
0.334216
0.336032
0.337662
0.339315
0.340769
0.342275
0.343559
0.344938
0.346061
0.347347
0.348321
0.34956
0.350518
0.351815
0.353221
0.355207
0.229106
0.23432
0.239291
0.243982
0.248498
0.252794
0.256961
0.260949
0.264833
0.268554
0.272186
0.275666
0.279068
0.28233
0.28552
0.28858
0.291573
0.294443
0.297251
0.29994
0.302569
0.305087
0.307546
0.309902
0.312201
0.314402
0.316547
0.318603
0.3206
0.322519
0.324374
0.326164
0.327881
0.329549
0.331137
0.332689
0.334153
0.335595
0.336942
0.338278
0.339514
0.340746
0.341871
0.343
0.343992
0.345015
0.34582
0.346695
0.347355
0.344479
0.246723
0.248762
0.247966
0.24617
0.244091
0.241917
0.2397
0.237454
0.235218
0.232984
0.230781
0.22859
0.226441
0.22431
0.222228
0.220166
0.218156
0.21617
0.21424
0.212342
0.210498
0.208688
0.206929
0.205209
0.203536
0.201905
0.200316
0.198775
0.19727
0.195819
0.194395
0.193035
0.191691
0.190424
0.189155
0.187982
0.186786
0.185709
0.184589
0.183608
0.182575
0.181695
0.180788
0.180049
0.17937
0.178921
0.178627
0.17872
0.178361
0.174836
0.241446
0.245333
0.245429
0.245011
0.244013
0.242487
0.240732
0.23881
0.236802
0.234716
0.232611
0.230458
0.228321
0.226145
0.224009
0.221831
0.219713
0.217544
0.215459
0.213307
0.211266
0.209137
0.207151
0.205052
0.203131
0.201065
0.199218
0.197187
0.195421
0.193427
0.191749
0.189793
0.188206
0.18629
0.184797
0.182922
0.181522
0.179691
0.178386
0.176599
0.17539
0.173641
0.172541
0.170822
0.169831
0.168203
0.167182
0.165914
0.165335
0.171498
0.246723
0.248763
0.247966
0.246171
0.24409
0.241919
0.239699
0.237455
0.235217
0.232985
0.230779
0.228591
0.22644
0.224312
0.222227
0.220167
0.218157
0.21617
0.214242
0.21234
0.210501
0.208685
0.206934
0.205204
0.203542
0.201898
0.200323
0.198767
0.197278
0.19581
0.194405
0.193025
0.191701
0.190411
0.189165
0.187965
0.186791
0.185684
0.184573
0.183557
0.182493
0.181555
0.180496
0.179645
0.17856
0.177712
0.176522
0.175135
0.173836
0.169343
0.229097
0.234333
0.23928
0.243996
0.248486
0.252809
0.256948
0.260966
0.264818
0.268572
0.272169
0.275686
0.279051
0.282351
0.285501
0.288602
0.291552
0.294467
0.297228
0.299965
0.302544
0.305114
0.307519
0.309932
0.31217
0.314435
0.316513
0.318639
0.320563
0.322559
0.324334
0.326207
0.327837
0.329598
0.331087
0.332744
0.334097
0.33566
0.33688
0.338359
0.339451
0.34086
0.341835
0.343134
0.343898
0.344939
0.345158
0.345945
0.339173
0.341579
0.223685
0.22914
0.234372
0.239347
0.244127
0.248693
0.253102
0.257328
0.261421
0.265349
0.269161
0.272822
0.276379
0.279795
0.283118
0.286307
0.28941
0.292387
0.295285
0.298063
0.300768
0.303357
0.30588
0.308292
0.310644
0.312889
0.315081
0.317166
0.319207
0.321144
0.323045
0.32484
0.326612
0.328274
0.329926
0.33146
0.333003
0.334414
0.33586
0.337147
0.338512
0.339667
0.340964
0.341978
0.343201
0.344054
0.345199
0.34565
0.347842
0.344361
0.241442
0.245336
0.245427
0.245008
0.244015
0.242488
0.240732
0.238811
0.236801
0.234718
0.232608
0.230461
0.228317
0.226151
0.224002
0.221839
0.219702
0.217557
0.215443
0.213325
0.211244
0.209162
0.207122
0.205086
0.203092
0.20111
0.199167
0.197244
0.195357
0.193498
0.19167
0.18988
0.188113
0.18639
0.184693
0.183031
0.181417
0.179804
0.178294
0.176721
0.175331
0.17382
0.17256
0.171198
0.17011
0.16909
0.168422
0.167473
0.166399
0.165939
0.233159
0.235754
0.23766
0.239151
0.239766
0.239597
0.239114
0.238075
0.236716
0.235098
0.233308
0.231359
0.22932
0.227174
0.224989
0.222723
0.220453
0.218114
0.215801
0.213419
0.211092
0.208688
0.206368
0.203958
0.201664
0.199258
0.197005
0.194611
0.192413
0.190036
0.187903
0.185547
0.18349
0.181156
0.179184
0.176869
0.174995
0.172695
0.170927
0.168638
0.166987
0.164703
0.16318
0.160895
0.159507
0.157301
0.155778
0.153909
0.152109
0.160059
0.241442
0.245336
0.245427
0.245008
0.244014
0.242489
0.240731
0.238813
0.236799
0.23472
0.232606
0.230464
0.228314
0.226154
0.223998
0.221843
0.219698
0.217562
0.215438
0.21333
0.211238
0.209168
0.207116
0.205092
0.203086
0.201116
0.199162
0.19725
0.195351
0.193504
0.191664
0.189886
0.188103
0.186402
0.184672
0.183053
0.181372
0.179842
0.178198
0.176766
0.175128
0.173799
0.17211
0.170838
0.16896
0.167698
0.165613
0.164008
0.161726
0.167929
0.223678
0.22915
0.234364
0.239358
0.244118
0.248706
0.253092
0.257341
0.261409
0.265363
0.269147
0.272837
0.276364
0.279812
0.283102
0.286325
0.289393
0.292406
0.295267
0.298083
0.300748
0.303379
0.305859
0.308316
0.310621
0.312915
0.315055
0.317195
0.319178
0.321177
0.32301
0.32488
0.326569
0.328322
0.329874
0.33152
0.332939
0.33449
0.335785
0.337244
0.338429
0.339804
0.340893
0.342196
0.343233
0.344275
0.344768
0.344333
0.340179
0.335789
0.229105
0.234321
0.23929
0.243984
0.248497
0.252796
0.256959
0.260952
0.264831
0.268557
0.272183
0.275669
0.279066
0.282333
0.285518
0.288583
0.29157
0.294446
0.297248
0.299943
0.302566
0.30509
0.307543
0.309906
0.312197
0.314406
0.316543
0.318607
0.320596
0.322523
0.324371
0.326166
0.32788
0.329551
0.331136
0.332689
0.334153
0.335595
0.336943
0.338278
0.339515
0.340746
0.341872
0.342999
0.343996
0.345005
0.345841
0.346635
0.347556
0.34499
0.246724
0.248763
0.247966
0.24617
0.244091
0.241917
0.2397
0.237453
0.235218
0.232983
0.230781
0.228589
0.226442
0.22431
0.222228
0.220166
0.218156
0.216171
0.21424
0.212343
0.210497
0.20869
0.206927
0.205213
0.203531
0.201911
0.200307
0.198786
0.197256
0.195836
0.194375
0.193059
0.191665
0.190451
0.189127
0.188009
0.18676
0.185733
0.184566
0.18363
0.18255
0.181725
0.180747
0.180097
0.179312
0.178959
0.178629
0.178584
0.178165
0.179765
0.241446
0.245332
0.245429
0.245011
0.244014
0.242487
0.240732
0.23881
0.236802
0.234716
0.23261
0.230458
0.228321
0.226145
0.224009
0.221831
0.219713
0.217545
0.215459
0.213307
0.211265
0.209138
0.20715
0.205053
0.20313
0.201067
0.199216
0.19719
0.195418
0.193431
0.191745
0.189798
0.188201
0.186295
0.184791
0.182927
0.181517
0.179695
0.178382
0.176599
0.175387
0.173644
0.172537
0.170823
0.169823
0.168197
0.167189
0.165874
0.165242
0.171515
0.246724
0.248763
0.247967
0.246171
0.24409
0.241919
0.239698
0.237455
0.235217
0.232986
0.230779
0.228592
0.22644
0.224312
0.222227
0.220167
0.218156
0.21617
0.214241
0.212341
0.2105
0.208685
0.206933
0.205205
0.203541
0.201898
0.200323
0.198767
0.197278
0.19581
0.194405
0.193025
0.191701
0.190411
0.189163
0.187967
0.186789
0.185686
0.18457
0.18356
0.18249
0.181563
0.180494
0.179645
0.178557
0.177709
0.176515
0.175097
0.173804
0.169281
0.229097
0.234333
0.23928
0.243996
0.248486
0.252809
0.256948
0.260966
0.264819
0.268572
0.272169
0.275686
0.279051
0.28235
0.285502
0.288601
0.291553
0.294466
0.297228
0.299965
0.302544
0.305114
0.30752
0.309932
0.312171
0.314435
0.316514
0.318639
0.320564
0.322558
0.324334
0.326206
0.327837
0.329597
0.331087
0.332744
0.334097
0.335659
0.336881
0.338358
0.339452
0.340858
0.341827
0.343136
0.343903
0.344938
0.345161
0.345953
0.339176
0.341595
0.213222
0.218087
0.223113
0.228095
0.233016
0.237793
0.242579
0.247215
0.251845
0.256306
0.260756
0.265025
0.269278
0.273341
0.277385
0.281231
0.285058
0.28868
0.292285
0.29568
0.299059
0.302226
0.305379
0.30832
0.311249
0.313969
0.316679
0.319182
0.321678
0.323975
0.326263
0.328361
0.330449
0.33236
0.334255
0.33599
0.337699
0.339272
0.340801
0.342225
0.343578
0.344864
0.34604
0.347191
0.34817
0.349179
0.349883
0.350771
0.350975
0.35194
0.229106
0.234322
0.23929
0.243984
0.248497
0.252796
0.256959
0.260951
0.264831
0.268556
0.272184
0.275668
0.279067
0.282331
0.28552
0.28858
0.291573
0.294443
0.297252
0.299938
0.302571
0.305084
0.30755
0.309898
0.312206
0.314396
0.316554
0.318594
0.32061
0.322507
0.324389
0.326146
0.327902
0.329526
0.331164
0.332659
0.334187
0.335558
0.336984
0.338236
0.339567
0.3407
0.341945
0.342955
0.34412
0.344973
0.346045
0.346609
0.34747
0.346793
0.223689
0.229141
0.234372
0.239345
0.244129
0.248692
0.253104
0.257326
0.261423
0.265346
0.269164
0.272818
0.276383
0.279791
0.283122
0.286302
0.289416
0.292381
0.295292
0.298055
0.300776
0.303348
0.30589
0.308281
0.310656
0.312877
0.315094
0.317153
0.319222
0.321128
0.323062
0.324823
0.326631
0.328254
0.329946
0.33144
0.333025
0.334395
0.335882
0.337133
0.338534
0.33967
0.34099
0.342019
0.343263
0.344183
0.345326
0.346088
0.346877
0.347375
0.229102
0.234328
0.239285
0.24399
0.248492
0.252802
0.256954
0.260958
0.264826
0.268563
0.272178
0.275676
0.27906
0.282339
0.285513
0.288589
0.291565
0.294452
0.297243
0.299949
0.302561
0.305095
0.307539
0.309911
0.312193
0.31441
0.31654
0.31861
0.320595
0.322525
0.32437
0.326167
0.32788
0.32955
0.331138
0.332688
0.334157
0.335593
0.33695
0.338279
0.339532
0.340759
0.341917
0.34305
0.34413
0.345194
0.346224
0.347246
0.348258
0.348739
0.21321
0.218103
0.2231
0.228112
0.233002
0.23781
0.242564
0.247233
0.251829
0.256327
0.260738
0.265047
0.269259
0.273364
0.277364
0.281256
0.285035
0.288707
0.29226
0.295708
0.299032
0.302255
0.30535
0.308351
0.311219
0.314002
0.316646
0.319218
0.321644
0.324012
0.326226
0.328401
0.33041
0.332402
0.334213
0.336036
0.337656
0.339323
0.340759
0.342285
0.343548
0.344949
0.346052
0.347352
0.34832
0.349563
0.350506
0.351862
0.353163
0.355167
0.351177
0.350205
0.338821
0.362811
0.542398
0.3465
0.33901
0.32944
0.373482
0.570489
0.344371
0.342345
0.329649
0.371098
0.47856
0.349615
0.342428
0.337238
0.414743
0.524727
0.35822
0.358337
0.351983
0.408631
0.579636
0.346365
0.328313
0.399663
1.34203
1.18998
0.195156
0.216472
0.414864
1.5404
1.21943
0.165939
0.278465
0.429781
1.5768
1.26843
0.209695
0.261538
0.672567
1.94351
1.35237
0.2941
0.30905
0.561297
1.9346
1.50392
0.340924
0.311948
0.408624
1.56905
1.35361
0.176759
0.188951
0.501322
1.88564
1.41498
0.180262
0.229201
0.739066
1.97265
1.51347
0.192864
0.254128
0.851743
2.37799
1.61316
0.292807
0.297739
0.643462
2.36746
1.76579
0.345698
0.324316
0.401274
1.31833
1.17539
0.191326
0.198799
0.442487
1.5204
1.21094
0.165938
0.278508
0.431034
1.57443
1.26506
0.209667
0.261803
0.67424
1.94597
1.35397
0.294066
0.309085
0.562544
1.9379
1.50534
0.351261
0.350199
0.338809
0.36035
0.532676
0.346563
0.338782
0.329625
0.369413
0.563199
0.344364
0.342348
0.329671
0.370841
0.477666
0.349616
0.342387
0.337265
0.416955
0.524791
0.358388
0.358337
0.351808
0.409474
0.580203
0.102389
0.210073
0.267934
0.280239
0.265212
0.105363
0.220562
0.280719
0.295334
0.277667
0.106671
0.224408
0.287421
0.300765
0.282064
0.109377
0.233271
0.298996
0.312961
0.291902
0.111083
0.238949
0.306731
0.320683
0.297982
0.113946
0.248106
0.318948
0.333136
0.307898
0.116081
0.255254
0.328394
0.342477
0.315027
0.119172
0.265088
0.341414
0.355584
0.32529
0.121776
0.273749
0.352681
0.366541
0.333428
0.125183
0.284572
0.366826
0.380546
0.344153
0.12831
0.294853
0.380025
0.393162
0.353286
0.132143
0.306964
0.395625
0.408283
0.364558
0.135874
0.318998
0.410902
0.422601
0.374659
0.140281
0.332664
0.428278
0.439008
0.386516
0.144721
0.346604
0.445812
0.455034
0.39752
0.149733
0.362108
0.465272
0.472808
0.409941
0.15483
0.378132
0.485271
0.490462
0.421718
0.16047
0.395616
0.507134
0.509535
0.434591
0.166215
0.413688
0.529882
0.528566
0.446921
0.172515
0.433077
0.55441
0.548672
0.460023
0.179039
0.453324
0.57969
0.568732
0.472578
0.186092
0.47492
0.606502
0.589437
0.485561
0.193383
0.497356
0.634046
0.609788
0.497896
0.201209
0.521045
0.662784
0.630178
0.510297
0.209272
0.545479
0.691976
0.649658
0.52188
0.217861
0.570951
0.721833
0.668325
0.533171
0.226718
0.596952
0.75159
0.685222
0.543458
0.236224
0.62362
0.781163
0.700219
0.553152
0.246277
0.650385
0.809676
0.712376
0.561712
0.257882
0.677202
0.836704
0.720374
0.56951
0.272014
0.703365
0.861247
0.72455
0.576207
0.287583
0.728387
0.882494
0.725476
0.582189
0.303897
0.751346
0.89886
0.7205
0.587315
0.321044
0.771561
0.906873
0.711875
0.592106
0.338381
0.789153
0.909761
0.697758
0.596179
0.355938
0.802699
0.903893
0.680929
0.60019
0.372625
0.810456
0.887833
0.656035
0.603732
0.388697
0.813424
0.863584
0.627602
0.607471
0.402939
0.811195
0.828127
0.593572
0.610621
0.415285
0.806324
0.780602
0.559212
0.613257
0.425505
0.804024
0.717357
0.525027
0.61444
0.427855
0.787006
0.636241
0.492333
0.614898
0.425094
0.76438
0.55635
0.461415
0.614444
0.417119
0.721798
0.468785
0.432607
0.610314
0.397123
0.657934
0.393248
0.406953
0.605051
0.376707
0.581409
0.340919
0.383439
0.596124
0.345798
0.511976
0.314467
0.367277
0.584845
0.326113
0.404255
0.298956
0.360214
0.568882
0.278784
0.242746
0.292111
0.358457
0.551647
0.27458
0.298526
0.326734
0.361007
0.542561
0.163856
0.366454
0.397274
0.344363
0.276112
0.170615
0.389945
0.42582
0.371398
0.291633
0.17367
0.399591
0.437564
0.382102
0.297292
0.17982
0.419138
0.461298
0.404681
0.310031
0.183855
0.433254
0.478528
0.420478
0.318229
0.190221
0.453298
0.502894
0.443808
0.331392
0.195304
0.470784
0.524351
0.463581
0.341508
0.202102
0.49255
0.550873
0.488925
0.35558
0.208261
0.513427
0.576587
0.512752
0.367677
0.215754
0.537831
0.60643
0.541108
0.383012
0.223073
0.56248
0.63686
0.569397
0.39724
0.231537
0.590395
0.67114
0.601767
0.414194
0.240168
0.61944
0.707052
0.635185
0.430736
0.249885
0.651782
0.74693
0.672642
0.449654
0.260028
0.686023
0.789333
0.712079
0.468699
0.271279
0.723785
0.836061
0.755781
0.489876
0.283182
0.764175
0.886142
0.802302
0.511563
0.296261
0.808451
0.941064
0.853484
0.535182
0.310197
0.85606
1.00017
0.908266
0.559526
0.325425
0.908005
1.06471
0.968174
0.585564
0.341719
0.964009
1.13423
1.03237
0.612334
0.359428
1.02488
1.20985
1.1021
0.640429
0.3784
1.09052
1.29124
1.17659
0.668992
0.398923
1.16159
1.37942
1.25675
0.698282
0.420896
1.23806
1.47398
1.34182
0.727444
0.44458
1.32054
1.57577
1.43219
0.756402
0.469885
1.40905
1.68442
1.52671
0.784222
0.49703
1.5041
1.80043
1.62507
0.81054
0.526087
1.60574
1.92323
1.72531
0.83433
0.557889
1.71454
2.05283
1.82595
0.855044
0.593187
1.82917
2.18807
1.92375
0.871663
0.634367
1.95033
2.3283
2.01539
0.883602
0.679871
2.07686
2.47158
2.09566
0.889082
0.728572
2.20801
2.61615
2.15933
0.891096
0.779874
2.34197
2.75908
2.19134
0.888653
0.833199
2.47679
2.8987
2.20282
0.882016
0.886632
2.60784
3.02907
2.18263
0.872219
0.938804
2.73018
3.14426
2.11582
0.861438
0.985796
2.83318
3.22658
2.01308
0.851077
1.02529
2.90401
3.26234
1.87661
0.84354
1.04429
2.93197
3.26505
1.71506
0.840037
1.03768
2.8904
3.13568
1.53114
0.838886
1.01136
2.7974
2.92567
1.34123
0.842181
0.94601
2.65473
2.57959
1.14664
0.847584
0.860347
2.40705
2.12991
0.985156
0.859305
0.77225
2.12739
1.60277
0.850463
0.874507
0.678552
1.91347
1.08204
0.777225
0.900652
0.589529
1.54354
0.636756
0.747376
0.943124
0.431687
0.600727
0.421588
0.832438
0.99341
0.319662
0.353355
0.375985
1.04326
1.07981
0.179039
0.391313
0.41685
0.355684
0.274629
0.186615
0.416263
0.446273
0.383255
0.290457
0.19004
0.42674
0.458646
0.394379
0.296272
0.196869
0.447409
0.483002
0.417375
0.309352
0.201397
0.462711
0.501208
0.43389
0.31784
0.208442
0.48386
0.526152
0.457601
0.331384
0.214135
0.5027
0.548719
0.478301
0.34194
0.221638
0.525691
0.575921
0.504138
0.356473
0.228515
0.54806
0.602829
0.529071
0.369183
0.236773
0.573856
0.633509
0.558136
0.385116
0.244913
0.600162
0.665236
0.58774
0.400155
0.254227
0.629674
0.700539
0.621122
0.417907
0.263792
0.660584
0.737896
0.656141
0.435506
0.274472
0.694778
0.779024
0.69501
0.455497
0.285686
0.731158
0.823087
0.736462
0.475912
0.298045
0.771101
0.871375
0.782124
0.498528
0.311167
0.813989
0.923459
0.831247
0.52199
0.325504
0.86086
0.980355
0.885123
0.54752
0.340853
0.911433
1.04188
0.943321
0.574159
0.357558
0.966527
1.10894
1.00691
0.60271
0.375479
1.0261
1.18153
1.07564
0.632431
0.394912
1.09083
1.26045
1.15041
0.663788
0.415772
1.16081
1.3458
1.23101
0.696113
0.438298
1.23662
1.43827
1.31812
0.729563
0.462466
1.31845
1.53796
1.41146
0.763425
0.488479
1.4068
1.64549
1.51135
0.797546
0.516346
1.50194
1.76092
1.61716
0.831082
0.546264
1.60427
1.88458
1.72864
0.863579
0.57834
1.714
2.01631
1.84449
0.894029
0.612922
1.83124
2.15606
1.96344
0.921741
0.651349
1.95602
2.30325
2.08296
0.945639
0.697153
2.08842
2.4572
2.20019
0.965013
0.747425
2.22757
2.61645
2.31072
0.978235
0.800958
2.37255
2.77928
2.40949
0.985196
0.857213
2.52151
2.94289
2.48982
0.987311
0.915379
2.67176
3.10358
2.53628
0.984655
0.973903
2.81872
3.25701
2.5538
0.977006
1.03095
2.95539
3.39499
2.53983
0.966788
1.08154
3.06973
3.50366
2.46345
0.951927
1.12271
3.14646
3.55806
2.34623
0.938584
1.14456
3.17941
3.5725
2.17443
0.924194
1.13692
3.13534
3.47158
1.96073
0.914498
1.10604
3.02361
3.26512
1.72015
0.910329
1.03456
2.84011
2.88994
1.4624
0.909459
0.932953
2.56196
2.37473
1.22383
0.92065
0.82774
2.24584
1.76706
1.02193
0.937043
0.725617
2.00248
1.16639
0.911243
0.970915
0.629089
1.60068
0.665167
0.863827
1.02196
0.456553
0.618853
0.435286
0.95662
1.09441
0.331378
0.348122
0.377629
1.23054
1.21017
0.162421
0.366629
0.397428
0.346356
0.277124
0.169134
0.389926
0.425831
0.373451
0.292648
0.172163
0.399519
0.437526
0.38418
0.298306
0.178251
0.418919
0.461142
0.406803
0.311037
0.182237
0.432942
0.478298
0.42262
0.319223
0.188533
0.452826
0.50254
0.445992
0.332372
0.193554
0.470183
0.523902
0.465779
0.342463
0.200268
0.491773
0.550292
0.491158
0.356514
0.20635
0.512489
0.575889
0.514995
0.368581
0.213745
0.536697
0.60559
0.543375
0.383883
0.220971
0.561158
0.635884
0.571666
0.398065
0.229323
0.588857
0.670007
0.604045
0.414969
0.237841
0.61769
0.705764
0.637446
0.431443
0.24743
0.649796
0.745467
0.674885
0.450287
0.257451
0.68381
0.787688
0.714273
0.469232
0.268571
0.721325
0.834207
0.757911
0.490299
0.280355
0.76148
0.884075
0.804326
0.511847
0.293315
0.805497
0.938769
0.85537
0.535308
0.30715
0.852868
0.997634
0.909949
0.559457
0.322268
0.904571
1.06194
0.969603
0.585274
0.338467
0.960349
1.13122
1.03346
0.61178
0.356091
1.02101
1.20657
1.10277
0.639577
0.374988
1.08648
1.28772
1.17671
0.667792
0.395439
1.15741
1.37558
1.25623
0.696695
0.417348
1.23381
1.46983
1.34044
0.72541
0.440939
1.31625
1.57126
1.42977
0.753884
0.466123
1.40479
1.67952
1.52297
0.781168
0.493163
1.49999
1.79507
1.61974
0.806925
0.522549
1.60202
1.91732
1.71803
0.830135
0.554577
1.71004
2.04612
1.81632
0.850304
0.590658
1.82475
2.18053
1.9113
0.866499
0.632594
1.94572
2.31971
1.9998
0.877483
0.678364
2.07201
2.46178
2.07674
0.883328
0.727153
2.20277
2.60493
2.13575
0.88504
0.778242
2.33606
2.74646
2.16589
0.882837
0.831094
2.46949
2.88443
2.17569
0.876388
0.883496
2.59781
3.01221
2.15199
0.867022
0.934017
2.71548
3.12523
2.08709
0.856974
0.978355
2.81093
3.206
1.98563
0.846989
1.01317
2.86927
3.24182
1.85505
0.840744
1.02747
2.88963
3.24548
1.69907
0.836902
1.01858
2.83304
3.12701
1.52392
0.836088
0.987993
2.72607
2.93458
1.33896
0.839022
0.932293
2.55695
2.61223
1.14791
0.844077
0.828598
2.35998
2.16908
0.983522
0.855161
0.739267
2.13508
1.61541
0.848298
0.869996
0.651895
1.94982
1.10009
0.774605
0.895178
0.579848
1.58106
0.644475
0.74385
0.936831
0.433172
0.620933
0.424567
0.823779
0.985585
0.320546
0.34775
0.374374
1.03472
1.0704
0.0964912
0.203442
0.264534
0.280001
0.265665
0.0992406
0.21358
0.277207
0.295077
0.278059
0.100451
0.217299
0.283847
0.300505
0.282431
0.102955
0.22589
0.295331
0.312687
0.292206
0.104529
0.231392
0.303009
0.3204
0.298242
0.107179
0.240268
0.315135
0.332837
0.308086
0.109147
0.24721
0.324525
0.342164
0.315151
0.112007
0.256753
0.337457
0.355253
0.325324
0.114407
0.265182
0.348666
0.366191
0.333368
0.117556
0.275708
0.362727
0.380173
0.343983
0.120434
0.28574
0.375867
0.392764
0.352995
0.123963
0.297564
0.391385
0.407855
0.364131
0.12737
0.309359
0.406595
0.42214
0.374081
0.131369
0.32278
0.423881
0.438509
0.385776
0.135364
0.336518
0.441326
0.454493
0.396598
0.139929
0.351796
0.460666
0.472221
0.408826
0.144591
0.367633
0.480526
0.489826
0.420389
0.149855
0.384927
0.502198
0.508849
0.433039
0.155343
0.402877
0.524693
0.52783
0.445125
0.161296
0.422183
0.549018
0.547847
0.457975
0.167432
0.442145
0.574357
0.567724
0.47026
0.174173
0.463588
0.601065
0.588281
0.482972
0.181097
0.485863
0.628657
0.608409
0.495021
0.1886
0.509439
0.657364
0.628589
0.507143
0.196377
0.533829
0.686631
0.647787
0.518441
0.204704
0.559291
0.716536
0.666171
0.529463
0.213348
0.585366
0.746414
0.682711
0.539485
0.22269
0.61217
0.776117
0.69731
0.548941
0.233301
0.63922
0.804815
0.708888
0.557281
0.246396
0.666331
0.83208
0.716999
0.564896
0.26103
0.692891
0.856916
0.720264
0.571432
0.276787
0.71847
0.878545
0.721192
0.577282
0.293199
0.742162
0.89543
0.715766
0.58227
0.310405
0.763142
0.904081
0.706956
0.586916
0.328011
0.78163
0.90719
0.692684
0.590813
0.345784
0.79629
0.902802
0.675614
0.594578
0.362782
0.804725
0.887475
0.650662
0.597854
0.379175
0.807953
0.864898
0.622712
0.601232
0.392769
0.804709
0.8307
0.589025
0.603935
0.406153
0.793485
0.785606
0.555348
0.605987
0.412455
0.777337
0.723986
0.52149
0.60704
0.411136
0.741454
0.646352
0.489418
0.607196
0.406454
0.698355
0.568396
0.458632
0.605984
0.396315
0.64033
0.484978
0.430534
0.601638
0.378188
0.57956
0.416712
0.405209
0.595943
0.356108
0.5317
0.365524
0.382543
0.587438
0.329627
0.53731
0.330411
0.366675
0.575587
0.312492
0.479916
0.305148
0.358465
0.560524
0.26849
0.25005
0.29304
0.356812
0.5426
0.270815
0.295664
0.326392
0.359275
0.533513
0.337421
0.349393
0.35339
0.409496
0.604915
0.368193
0.332169
0.347905
0.415414
0.63664
0.437878
0.337669
0.347503
0.424547
0.668649
0.478238
0.595841
0.363793
0.437612
0.701181
0.523003
0.917851
0.380705
0.458929
0.728814
0.55124
0.977852
0.418333
0.488347
0.749801
0.579259
0.983989
0.462722
0.519431
0.767392
0.59353
0.993356
0.53575
0.55209
0.78108
0.603907
1.01293
0.613005
0.584018
0.791638
0.609349
1.05136
0.705849
0.616774
0.798555
0.610633
1.08678
0.783029
0.64928
0.802302
0.60467
1.11483
0.868368
0.680628
0.802182
0.59211
1.12708
0.94193
0.711739
0.801181
0.574746
1.12685
1.00571
0.740544
0.798658
0.556172
1.12258
1.05882
0.767998
0.794227
0.534207
1.11095
1.09872
0.792818
0.788059
0.506571
1.09325
1.1236
0.814509
0.781165
0.481536
1.07434
1.13989
0.831094
0.77332
0.461977
1.05067
1.13981
0.843619
0.765143
0.443793
1.02411
1.1356
0.852046
0.756275
0.426883
0.995811
1.1251
0.857444
0.747426
0.410837
0.965626
1.10734
0.85792
0.737935
0.395858
0.934642
1.0852
0.856419
0.728539
0.38146
0.90295
1.05924
0.852462
0.718445
0.368061
0.871489
1.03111
0.845497
0.708529
0.355113
0.840077
1.00115
0.835828
0.697779
0.3431
0.809587
0.970702
0.824622
0.687319
0.331437
0.779557
0.939574
0.811158
0.675924
0.320666
0.750855
0.908982
0.796871
0.665001
0.310144
0.722759
0.87832
0.780784
0.653058
0.300501
0.696239
0.84882
0.764617
0.641842
0.291006
0.670299
0.819496
0.74701
0.629513
0.282381
0.646124
0.791783
0.730011
0.618225
0.273831
0.622402
0.764249
0.711746
0.605697
0.266178
0.60062
0.738703
0.694722
0.594569
0.258498
0.57905
0.713144
0.676406
0.58201
0.251763
0.559621
0.689951
0.65994
0.571247
0.244862
0.540046
0.666361
0.641951
0.558783
0.238989
0.522892
0.645589
0.626442
0.548551
0.232773
0.505097
0.623827
0.608969
0.53626
0.227722
0.490131
0.605474
0.594678
0.52668
0.222083
0.473845
0.5853
0.577772
0.514592
0.217802
0.460976
0.569327
0.564864
0.50575
0.212628
0.445881
0.550438
0.54848
0.493857
0.209071
0.435041
0.536796
0.537065
0.485819
0.204261
0.420791
0.518889
0.521073
0.474072
0.201376
0.411816
0.507577
0.511244
0.466937
0.196879
0.398286
0.490571
0.495253
0.455069
0.194451
0.390425
0.480458
0.488117
0.449755
0.189663
0.375533
0.461604
0.467513
0.434047
0.344133
0.325911
0.424661
1.72845
1.49392
0.566456
0.53783
0.458215
1.40698
1.44336
0.783375
1.28335
0.563358
1.18169
1.36688
1.05343
3.0236
0.958694
1.08576
1.31551
1.19682
3.87047
1.4327
1.09767
1.26781
1.31326
4.23261
1.93464
1.13802
1.23387
1.44463
4.43146
2.4784
1.2079
1.20793
1.5371
4.42245
2.99983
1.32284
1.18719
1.57328
4.40467
3.41738
1.45035
1.16846
1.58261
4.3658
3.75561
1.59821
1.1526
1.56
4.28842
3.95016
1.7347
1.13823
1.51277
4.18756
4.10239
1.86751
1.12575
1.44223
4.04438
4.10078
1.98203
1.11614
1.35926
3.88967
4.06403
2.06821
1.10708
1.27903
3.72106
3.97365
2.143
1.10021
1.19987
3.53584
3.82508
2.19006
1.0931
1.1254
3.3433
3.65305
2.22799
1.08749
1.06059
3.1515
3.46882
2.2297
1.081
1.00077
2.96418
3.28212
2.22068
1.07358
0.945367
2.78625
3.09943
2.19734
1.06513
0.893828
2.61901
2.92419
2.15449
1.05507
0.845845
2.4626
2.7574
2.09882
1.04269
0.801588
2.31728
2.60042
2.03411
1.02833
0.760604
2.18227
2.45265
1.96223
1.01148
0.722897
2.05732
2.31462
1.88648
0.992892
0.687908
1.94131
2.18511
1.80785
0.972139
0.655724
1.83406
2.06455
1.72906
0.950276
0.62574
1.73429
1.95143
1.65022
0.926767
0.598142
1.64205
1.84634
1.57354
0.902921
0.572285
1.55596
1.74762
1.49837
0.877927
0.548506
1.47639
1.65599
1.42676
0.853365
0.526065
1.40182
1.56975
1.35735
0.82801
0.505487
1.33308
1.48991
1.29218
0.803777
0.485911
1.26833
1.41456
1.22929
0.778884
0.46808
1.20891
1.34512
1.17096
0.75573
0.450979
1.15251
1.27926
1.11456
0.731817
0.43556
1.10115
1.21896
1.06293
0.710235
0.420514
1.05182
1.16129
1.01257
0.687559
0.407191
1.00746
1.10905
0.967244
0.667839
0.393826
0.964073
1.05832
0.922215
0.646459
0.382372
0.925864
1.0132
0.882756
0.628753
0.370347
0.887302
0.968137
0.842195
0.608583
0.360614
0.854572
0.929439
0.808221
0.592958
0.349594
0.819719
0.888716
0.771152
0.573821
0.341493
0.792076
0.856048
0.742443
0.560304
0.331162
0.759688
0.818177
0.707747
0.541955
0.32462
0.737182
0.79167
0.684401
0.53061
0.314824
0.705494
0.754538
0.650441
0.512527
0.309339
0.689905
0.736336
0.634373
0.504481
0.298745
0.651325
0.690945
0.5927
0.48163
0.345219
0.318612
0.453261
2.08265
1.7377
0.591075
0.538805
0.486696
1.67292
1.65595
0.828339
1.30958
0.600457
1.38395
1.54073
1.15157
3.15124
1.03255
1.27364
1.46118
1.32199
4.10593
1.59496
1.29559
1.39389
1.4485
4.54863
2.18289
1.35806
1.34838
1.56752
4.81596
2.8192
1.47644
1.31281
1.68189
4.82176
3.41831
1.63782
1.28615
1.72196
4.81062
3.90195
1.82439
1.26512
1.73161
4.76636
4.25946
2.02212
1.25016
1.70519
4.68097
4.47751
2.20598
1.23861
1.64981
4.56017
4.58818
2.36994
1.23102
1.57022
4.40409
4.5636
2.50317
1.22506
1.4849
4.22901
4.48756
2.60605
1.22148
1.39825
4.03217
4.3388
2.67376
1.21791
1.31118
3.82204
4.1547
2.70781
1.21531
1.22854
3.60649
3.95037
2.70272
1.21045
1.1581
3.39425
3.73916
2.67843
1.20405
1.09347
3.18937
3.52937
2.63189
1.19538
1.03298
2.99519
3.32562
2.56304
1.18364
0.97673
2.81311
3.13125
2.48152
1.16883
0.924547
2.64347
2.94751
2.39054
1.15092
0.876409
2.4862
2.77527
2.2941
1.13037
0.831912
2.34055
2.61412
2.19445
1.1071
0.790923
2.20597
2.46407
2.09434
1.0819
0.75299
2.0814
2.32418
1.99475
1.05469
0.718058
1.96633
2.19423
1.8976
1.02647
0.685593
1.85959
2.07299
1.80302
0.996997
0.655637
1.76087
1.96037
1.71249
0.967415
0.627631
1.66899
1.85516
1.62544
0.937184
0.601793
1.58394
1.75745
1.54314
0.907624
0.577446
1.50443
1.666
1.46456
0.877783
0.554986
1.43092
1.58115
1.39098
0.849267
0.533679
1.36186
1.50153
1.3209
0.820584
0.514144
1.29824
1.42783
1.25582
0.793795
0.495458
1.23807
1.35841
1.19372
0.766699
0.47849
1.18298
1.29446
1.13661
0.742048
0.462007
1.13031
1.23377
1.0817
0.716701
0.447301
1.08261
1.17829
1.03186
0.694404
0.432634
1.03623
1.12496
0.983183
0.670771
0.419953
0.994994
1.07692
0.939952
0.650922
0.406725
0.953765
1.02961
0.896442
0.628831
0.395911
0.918287
0.988244
0.859291
0.611456
0.383749
0.881034
0.945566
0.819771
0.590664
0.37472
0.850915
0.910478
0.788403
0.575773
0.363268
0.816314
0.870836