/*--------------------------------*- C++ -*----------------------------------*\
| =========                 |                                                 |
| \\      /  F ield         | OpenFOAM: The Open Source CFD Toolbox           |
|  \\    /   O peration     | Version:                                        |
|   \\  /    A nd           | Website:  www.openfoam.com                      |
|    \\/     M anipulation  |                                                 |
\*---------------------------------------------------------------------------*/
FoamFile
{
    version     2.0;
    format      ascii;
    class       volScalarField;
    location    "1.5";
    object      nut;
}
// * * * * * * * * * * * * * * * * * * * * * * * * * * * * * * * * * * * * * //

dimensions      [0 2 -1 0 0 0 0];


internalField   nonuniform List<scalar> 
3875
(
0.000207417
0.000209754
0.000212154
0.000214509
0.00021681
0.000219021
0.000221215
0.000223318
0.0002254
0.000227388
0.000229352
0.000231222
0.000233069
0.00023482
0.000236551
0.000238185
0.0002398
0.000241318
0.00024282
0.000244226
0.000245618
0.000246915
0.0002482
0.000249392
0.000250575
0.000251667
0.000252751
0.000253749
0.000254739
0.000255647
0.000256549
0.000257373
0.00025819
0.000258936
0.000259673
0.000260347
0.000261008
0.000261615
0.000262204
0.000262751
0.000263271
0.000263761
0.000264212
0.000264648
0.000265025
0.0002654
0.000265682
0.000265995
0.000265965
0.000266722
0.000215004
0.000217421
0.000219711
0.000221854
0.000223896
0.000225825
0.000227677
0.000229438
0.000231138
0.000232757
0.000234324
0.000235818
0.000237267
0.00023865
0.000239994
0.000241276
0.000242525
0.000243714
0.000244875
0.000245978
0.000247057
0.000248079
0.000249082
0.000250029
0.00025096
0.000251838
0.000252703
0.000253514
0.000254317
0.000255067
0.000255812
0.000256503
0.000257193
0.000257829
0.00025847
0.000259052
0.000259647
0.000260179
0.000260733
0.000261214
0.000261731
0.000262163
0.000262645
0.000263028
0.000263485
0.000263779
0.00026427
0.00026428
0.000265087
0.000263368
0.000212449
0.000215006
0.00021744
0.000219734
0.00022192
0.000223985
0.000225963
0.00022784
0.000229647
0.000231362
0.000233021
0.000234596
0.000236124
0.000237575
0.000238985
0.000240322
0.000241626
0.00024286
0.000244067
0.000245205
0.000246322
0.000247373
0.000248408
0.000249377
0.000250336
0.000251229
0.000252118
0.000252941
0.000253765
0.000254522
0.000255287
0.000255982
0.000256694
0.000257332
0.000257994
0.000258578
0.000259195
0.000259728
0.000260305
0.000260789
0.00026133
0.000261769
0.000262276
0.000262674
0.000263142
0.00026352
0.000263891
0.000264326
0.000264292
0.00026557
0.000215002
0.000217424
0.000219709
0.000221857
0.000223894
0.000225827
0.000227675
0.000229441
0.000231135
0.00023276
0.000234321
0.000235821
0.000237265
0.000238654
0.000239991
0.00024128
0.000242521
0.000243719
0.000244871
0.000245983
0.000247052
0.000248084
0.000249077
0.000250035
0.000250955
0.000251844
0.000252697
0.000253521
0.000254311
0.000255074
0.000255805
0.00025651
0.000257186
0.000257837
0.000258461
0.000259062
0.000259637
0.000260191
0.00026072
0.000261231
0.000261716
0.000262188
0.000262631
0.000263073
0.000263475
0.000263896
0.000264286
0.000264608
0.000265314
0.000264325
0.000207411
0.000209762
0.000212148
0.000214517
0.000216804
0.00021903
0.000221208
0.000223327
0.000225393
0.000227396
0.000229345
0.000231231
0.000233061
0.00023483
0.000236542
0.000238195
0.00023979
0.000241329
0.00024281
0.000244238
0.000245607
0.000246927
0.000248189
0.000249405
0.000250563
0.000251681
0.000252739
0.000253763
0.000254726
0.000255662
0.000256535
0.000257387
0.000258176
0.00025895
0.00025966
0.000260361
0.000260995
0.00026163
0.000262193
0.000262769
0.000263263
0.00026379
0.00026422
0.000264705
0.000265102
0.000265503
0.000266016
0.00026628
0.000267018
0.000268128
0.000215001
0.00021742
0.000219711
0.000221853
0.000223897
0.000225824
0.000227678
0.000229437
0.000231138
0.000232756
0.000234324
0.000235817
0.000237268
0.00023865
0.000239994
0.000241276
0.000242524
0.000243715
0.000244874
0.000245979
0.000247055
0.000248081
0.000249079
0.000250032
0.000250957
0.000251841
0.000252699
0.000253519
0.000254312
0.000255073
0.000255805
0.000256511
0.000257185
0.000257839
0.000258459
0.000259064
0.000259634
0.000260192
0.000260717
0.00026123
0.00026171
0.000262181
0.000262615
0.00026305
0.00026342
0.000263827
0.000264116
0.000264425
0.000264916
0.000262296
0.00210161
0.00158059
0.00131869
0.00114987
0.00102901
0.00093752
0.000865101
0.000806021
0.000756576
0.000714447
0.000677977
0.000646017
0.000617734
0.000592453
0.000569737
0.000549131
0.000530413
0.000513235
0.000497485
0.000482817
0.000469309
0.00045663
0.000444925
0.00043386
0.000423634
0.000413903
0.000404911
0.000396289
0.000388336
0.000380669
0.000373599
0.000366758
0.000360433
0.000354324
0.000348622
0.000343172
0.00033799
0.000333134
0.000328394
0.000324044
0.000319717
0.000315723
0.000311797
0.000307934
0.000304258
0.000300388
0.000296372
0.000292405
0.000287896
0.000272901
0.00231613
0.00189522
0.00162381
0.0014444
0.00130158
0.0011868
0.00109323
0.00101571
0.000949998
0.00089358
0.000844282
0.000801146
0.000762742
0.000728587
0.000697754
0.000669957
0.000644616
0.000621491
0.000600289
0.000580726
0.000562723
0.0005459
0.000530421
0.000515743
0.000502304
0.000489338
0.000477588
0.000466
0.000455675
0.0004452
0.000436103
0.000426536
0.000418525
0.000409697
0.000402668
0.00039443
0.000388308
0.000380591
0.000375155
0.000368002
0.00036318
0.000356462
0.000352184
0.00034588
0.000342085
0.00033628
0.000332105
0.000326007
0.00032408
0.000321282
0.0021017
0.00158051
0.00131874
0.00114984
0.00102903
0.000937497
0.000865113
0.000806006
0.000756582
0.000714439
0.000677976
0.000646016
0.000617728
0.000592458
0.000569726
0.000549142
0.000530396
0.000513252
0.000497465
0.000482837
0.000469286
0.000456653
0.000444899
0.000433886
0.000423605
0.000413932
0.00040488
0.00039632
0.000388303
0.000380701
0.000373567
0.000366788
0.000360409
0.000354348
0.000348615
0.000343191
0.000338015
0.000333166
0.00032847
0.000324166
0.000319882
0.00031614
0.000312247
0.000308986
0.000305371
0.000302499
0.000299797
0.000296239
0.000293584
0.000266908
0.000214997
0.000217426
0.000219706
0.00022186
0.000223892
0.000225831
0.000227672
0.000229445
0.000231132
0.000232764
0.000234317
0.000235826
0.00023726
0.000238658
0.000239986
0.000241285
0.000242516
0.000243725
0.000244865
0.00024599
0.000247045
0.000248092
0.000249068
0.000250044
0.000250945
0.000251854
0.000252686
0.000253533
0.000254298
0.000255088
0.000255789
0.000256527
0.000257167
0.000257858
0.000258439
0.000259086
0.000259611
0.000260219
0.000260691
0.000261263
0.000261684
0.000262226
0.000262614
0.000263081
0.000263402
0.000263743
0.000263939
0.000265819
0.000256807
0.000274671
0.000212441
0.000215002
0.000217443
0.000219738
0.00022192
0.000223985
0.000225962
0.000227841
0.000229645
0.000231364
0.000233019
0.000234598
0.000236122
0.000237577
0.000238982
0.000240325
0.000241623
0.000242863
0.000244063
0.000245209
0.000246318
0.000247377
0.000248403
0.000249381
0.000250331
0.000251234
0.000252113
0.000252946
0.000253759
0.000254528
0.000255281
0.000255989
0.000256687
0.000257339
0.000257986
0.000258585
0.000259188
0.000259734
0.000260298
0.000260792
0.000261325
0.000261765
0.000262266
0.00026266
0.000263118
0.000263447
0.00026398
0.000263477
0.000266196
0.000259062
0.00231626
0.00189503
0.00162414
0.00144326
0.00130148
0.00118671
0.00109326
0.00101565
0.000950041
0.000893513
0.000844328
0.000801079
0.000762787
0.000728523
0.000697796
0.000669898
0.000644651
0.000621442
0.000600315
0.000580692
0.000562733
0.000545887
0.000530407
0.000515759
0.000502259
0.000489392
0.000477501
0.000466103
0.000455533
0.000445366
0.000435892
0.000426776
0.000418233
0.00041002
0.000402285
0.000394832
0.000387831
0.000380983
0.000374709
0.00036822
0.000362668
0.000356434
0.000351127
0.000345299
0.000339428
0.000333789
0.000327299
0.000319386
0.000315356
0.000312851
0.00260009
0.00249669
0.00230306
0.00211982
0.00195223
0.00180277
0.00167474
0.00156115
0.00146153
0.00137391
0.00129633
0.00122735
0.00116564
0.00111014
0.00106002
0.00101447
0.000973024
0.000934956
0.000900147
0.000867842
0.000838227
0.00081043
0.000784959
0.000760734
0.000738633
0.000717271
0.000697967
0.000678914
0.000661972
0.000644787
0.000629882
0.000614334
0.000601077
0.000586755
0.000575015
0.000561737
0.000551443
0.000538938
0.00053
0.000518047
0.000510426
0.000498815
0.000492484
0.000480929
0.000475812
0.000464357
0.000458521
0.000446944
0.000429595
0.000498272
0.00231636
0.00189493
0.00162422
0.00144318
0.00130153
0.00118665
0.00109331
0.00101559
0.000950079
0.000893467
0.00084436
0.000801041
0.000762814
0.000728491
0.000697818
0.000669873
0.000644669
0.000621422
0.000600328
0.000580677
0.000562743
0.000545875
0.000530415
0.000515749
0.000502266
0.000489381
0.00047751
0.00046609
0.000455545
0.000445352
0.000435903
0.00042677
0.000418233
0.000410044
0.000402252
0.000394933
0.000387709
0.000381319
0.000374583
0.000368805
0.000362584
0.000357697
0.000351925
0.000348013
0.000343066
0.000340192
0.000335096
0.000335427
0.000334685
0.000379848
0.000212437
0.000215007
0.000217439
0.000219743
0.000221916
0.000223991
0.000225957
0.000227847
0.00022964
0.00023137
0.000233014
0.000234605
0.000236116
0.000237584
0.000238976
0.000240332
0.000241616
0.00024287
0.000244056
0.000245217
0.000246311
0.000247386
0.000248395
0.000249391
0.000250322
0.000251244
0.000252102
0.000252958
0.000253747
0.000254542
0.000255266
0.000256006
0.000256668
0.00025736
0.000257963
0.000258611
0.00025916
0.000259766
0.000260268
0.00026083
0.000261292
0.000261815
0.000262249
0.00026272
0.000263171
0.0002635
0.000263531
0.00026383
0.000262711
0.000264152
0.000215
0.00021742
0.00021971
0.000221854
0.000223896
0.000225825
0.000227677
0.000229439
0.000231137
0.000232757
0.000234323
0.000235819
0.000237266
0.000238651
0.000239993
0.000241278
0.000242523
0.000243716
0.000244873
0.000245981
0.000247054
0.000248083
0.000249078
0.000250033
0.000250956
0.000251843
0.000252697
0.00025352
0.000254311
0.000255074
0.000255804
0.000256511
0.000257185
0.000257839
0.000258459
0.000259064
0.000259634
0.000260192
0.000260716
0.00026123
0.000261709
0.000262182
0.000262616
0.000263048
0.000263427
0.000263811
0.000264158
0.000264272
0.000265485
0.000261688
0.00210163
0.00158057
0.00131872
0.00114986
0.00102902
0.000937503
0.000865119
0.000806
0.000756598
0.000714421
0.000678003
0.000645986
0.000617767
0.000592415
0.000569778
0.000549084
0.000530464
0.000513178
0.00049754
0.000482757
0.000469367
0.000456569
0.000444984
0.0004338
0.000423691
0.000413848
0.00040496
0.000396245
0.000388372
0.00038064
0.000373619
0.000366744
0.000360441
0.000354317
0.000348627
0.000343163
0.000338
0.000333121
0.000328398
0.000324061
0.000319652
0.000315866
0.000311534
0.000308364
0.000303599
0.000301403
0.000294864
0.000294703
0.000282724
0.00030595
0.00231617
0.00189514
0.00162379
0.00144459
0.00130165
0.0011868
0.00109326
0.0010157
0.000950018
0.000893559
0.0008443
0.000801124
0.000762759
0.000728567
0.000697771
0.000669938
0.000644633
0.000621473
0.000600306
0.000580709
0.000562739
0.000545885
0.000530434
0.00051573
0.000502315
0.000489328
0.000477595
0.000465995
0.000455676
0.0004452
0.000436099
0.000426541
0.000418517
0.000409706
0.000402655
0.000394444
0.00038829
0.000380608
0.000375128
0.000368025
0.000363162
0.000356467
0.000352186
0.000345885
0.000342092
0.000336318
0.000332241
0.000326103
0.000323938
0.000322329
0.00210171
0.0015805
0.00131876
0.00114983
0.00102903
0.000937495
0.000865114
0.000806005
0.000756582
0.000714438
0.000677975
0.000646015
0.000617726
0.000592458
0.000569723
0.000549143
0.000530392
0.000513255
0.00049746
0.000482841
0.000469281
0.000456658
0.000444893
0.000433892
0.000423598
0.000413938
0.000404873
0.000396326
0.000388297
0.000380707
0.00037356
0.000366795
0.0003604
0.000354355
0.000348606
0.000343198
0.000338006
0.000333174
0.00032846
0.000324172
0.000319874
0.000316132
0.000312241
0.000308991
0.000305382
0.000302524
0.000299812
0.000296217
0.000293712
0.000267096
0.000214996
0.000217426
0.000219706
0.00022186
0.000223892
0.000225831
0.000227672
0.000229445
0.000231132
0.000232764
0.000234317
0.000235825
0.00023726
0.000238658
0.000239986
0.000241285
0.000242516
0.000243725
0.000244865
0.000245989
0.000247045
0.000248092
0.000249069
0.000250044
0.000250946
0.000251854
0.000252686
0.000253533
0.000254298
0.000255088
0.000255789
0.000256527
0.000257167
0.000257858
0.000258439
0.000259086
0.000259612
0.000260219
0.000260691
0.000261263
0.000261684
0.000262226
0.000262595
0.000263088
0.000263408
0.000263738
0.000263934
0.000265823
0.000256805
0.000274716
0.000207417
0.000209754
0.000212154
0.000214509
0.00021681
0.000219021
0.000221215
0.000223319
0.0002254
0.000227388
0.000229352
0.000231222
0.000233069
0.00023482
0.000236551
0.000238185
0.0002398
0.000241318
0.00024282
0.000244226
0.000245618
0.000246915
0.0002482
0.000249393
0.000250575
0.000251667
0.000252751
0.000253749
0.000254739
0.000255647
0.000256549
0.000257373
0.00025819
0.000258936
0.000259673
0.000260346
0.000261008
0.000261615
0.000262204
0.000262751
0.00026327
0.000263761
0.000264212
0.000264649
0.000265021
0.000265411
0.000265645
0.000266068
0.000265977
0.0002666
0.000215004
0.000217422
0.000219711
0.000221854
0.000223896
0.000225825
0.000227677
0.000229438
0.000231137
0.000232757
0.000234323
0.000235818
0.000237267
0.00023865
0.000239994
0.000241277
0.000242524
0.000243715
0.000244875
0.000245979
0.000247056
0.00024808
0.000249081
0.00025003
0.000250959
0.000251839
0.000252702
0.000253515
0.000254316
0.000255067
0.000255811
0.000256503
0.000257193
0.000257829
0.00025847
0.000259052
0.000259647
0.000260179
0.000260731
0.000261215
0.000261729
0.000262165
0.000262644
0.000263027
0.000263487
0.000263776
0.000264267
0.00026429
0.000265066
0.000263494
0.00021245
0.000215006
0.000217439
0.000219734
0.00022192
0.000223985
0.000225963
0.00022784
0.000229646
0.000231363
0.000233021
0.000234597
0.000236124
0.000237575
0.000238985
0.000240322
0.000241626
0.00024286
0.000244066
0.000245205
0.000246322
0.000247373
0.000248408
0.000249377
0.000250336
0.000251229
0.000252118
0.000252941
0.000253765
0.000254522
0.000255287
0.000255982
0.000256694
0.000257332
0.000257994
0.000258578
0.000259195
0.000259729
0.000260304
0.000260788
0.000261331
0.000261769
0.000262276
0.000262674
0.000263142
0.00026352
0.000263891
0.000264327
0.0002643
0.000265589
0.000215002
0.000217424
0.000219709
0.000221857
0.000223894
0.000225828
0.000227674
0.000229441
0.000231135
0.00023276
0.000234321
0.000235821
0.000237264
0.000238654
0.000239991
0.00024128
0.000242521
0.000243719
0.000244871
0.000245983
0.000247052
0.000248085
0.000249076
0.000250035
0.000250955
0.000251844
0.000252696
0.000253521
0.00025431
0.000255075
0.000255804
0.000256511
0.000257185
0.000257839
0.00025846
0.000259064
0.000259635
0.000260193
0.000260718
0.000261232
0.000261715
0.000262188
0.000262631
0.000263071
0.000263477
0.000263891
0.000264295
0.000264601
0.000265329
0.000264297
0.000207411
0.000209762
0.000212148
0.000214517
0.000216804
0.00021903
0.000221208
0.000223327
0.000225393
0.000227397
0.000229344
0.000231231
0.000233061
0.00023483
0.000236542
0.000238195
0.00023979
0.000241329
0.00024281
0.000244238
0.000245607
0.000246927
0.000248189
0.000249405
0.000250563
0.000251681
0.000252739
0.000253763
0.000254726
0.000255662
0.000256535
0.000257388
0.000258175
0.000258952
0.000259657
0.000260364
0.000260991
0.000261634
0.000262188
0.000262773
0.00026326
0.000263792
0.000264221
0.000264702
0.000265103
0.000265513
0.000265986
0.000266325
0.000267052
0.000267879
0.000265005
0.000268554
0.000260165
0.000270761
0.000331359
0.000266914
0.000257443
0.000259233
0.000279623
0.000341925
0.000261117
0.000266742
0.000255224
0.000269241
0.000311489
0.000268046
0.000257744
0.000265617
0.000290961
0.000325226
0.000268108
0.000270178
0.000264761
0.000287289
0.000341699
0.000266214
0.000286415
0.000351901
0.00106807
0.000497921
0.000343513
0.000272405
0.000469711
0.00124355
0.000489392
0.000319427
0.00043163
0.000545508
0.00178413
0.000513783
0.000344326
0.000404334
0.000678899
0.00168951
0.000516481
0.00025668
0.000274887
0.000515625
0.00145553
0.000548338
0.000263903
0.000279538
0.000376632
0.00139266
0.000521942
0.000330977
0.000327874
0.000632595
0.00176336
0.000522119
0.00044477
0.000524122
0.00108396
0.00250154
0.000536579
0.00036797
0.000407424
0.0010266
0.00234117
0.000554119
0.000248765
0.000267655
0.000640926
0.00197649
0.000593681
0.000267161
0.000281281
0.00035125
0.00103859
0.00049327
0.00028631
0.000306183
0.000479628
0.00123121
0.000488773
0.000319725
0.000433119
0.000553476
0.0017864
0.000512343
0.000344835
0.000407862
0.000672293
0.00169384
0.000517329
0.000256656
0.00027503
0.000516067
0.00145894
0.000548871
0.000265055
0.000268541
0.000260408
0.000269635
0.000326595
0.000266978
0.00025687
0.000259823
0.000276392
0.000337787
0.000261095
0.000266727
0.000255212
0.000268835
0.00031049
0.000268127
0.000257763
0.000265498
0.000291824
0.000324907
0.000267692
0.000270729
0.000264696
0.000287644
0.000341911
0.000143579
0.000205123
0.000233152
0.000236759
0.000230386
0.000145667
0.000211823
0.000236375
0.000245552
0.000238007
0.000146541
0.000212335
0.000240962
0.000245833
0.000238086
0.000148391
0.000216799
0.000245342
0.000251196
0.000242589
0.000149559
0.000219378
0.000248598
0.000254173
0.000245007
0.000151488
0.00022358
0.000253488
0.000259072
0.000249051
0.000152933
0.000226823
0.000257246
0.000262684
0.000251923
0.000154987
0.000231195
0.000262324
0.00026767
0.000255994
0.000156718
0.000235006
0.000266662
0.000271786
0.000259198
0.000158941
0.000239665
0.000272003
0.000276956
0.000263355
0.00016097
0.000244025
0.000276912
0.000281549
0.000266863
0.000163413
0.000249047
0.000282596
0.000286956
0.000271127
0.000165766
0.000253942
0.000288063
0.000291997
0.000274908
0.000168495
0.000259373
0.000294149
0.000297668
0.000279278
0.000171176
0.000264798
0.000300166
0.000303113
0.000283284
0.00017414
0.000270682
0.000306695
0.000309037
0.000287735
0.00017709
0.000276616
0.000313254
0.000314814
0.000291897
0.000180278
0.000282928
0.000320256
0.000320935
0.000296375
0.000183452
0.000289285
0.000327366
0.000326926
0.000300602
0.000186862
0.000295947
0.000334835
0.000333135
0.000305022
0.000190299
0.000302722
0.000342354
0.000339207
0.000309195
0.000193935
0.000309773
0.00035013
0.000345356
0.000313446
0.000197608
0.000316918
0.000357934
0.000351284
0.000317429
0.00020147
0.000324286
0.000365888
0.000357118
0.000321381
0.000205368
0.000331713
0.000373789
0.000362596
0.000325029
0.000209445
0.000339288
0.000381702
0.000367765
0.000328548
0.000213579
0.000346861
0.000389433
0.000372384
0.000331729
0.000217951
0.000354477
0.00039698
0.000376461
0.000334708
0.000222502
0.000361982
0.000404139
0.000379844
0.00033733
0.000227673
0.000369373
0.000410819
0.000381531
0.000339713
0.000233844
0.000376471
0.000416836
0.000383102
0.000341766
0.000240478
0.000383164
0.000421964
0.000383249
0.000343594
0.000247276
0.00038924
0.000426199
0.000382085
0.000345156
0.00025419
0.000394496
0.000427789
0.000379808
0.000346611
0.000261066
0.000399056
0.00042871
0.000376155
0.000347812
0.000267864
0.000402576
0.000427447
0.000371573
0.000348925
0.000274139
0.000404558
0.000423638
0.000364799
0.00034988
0.000280108
0.000405343
0.000417817
0.000356674
0.000350754
0.000285291
0.000404819
0.000409107
0.000346785
0.000351464
0.000289656
0.000403465
0.00039712
0.000336289
0.000351671
0.000293179
0.000402664
0.000380634
0.000325615
0.000351782
0.000293955
0.000398382
0.000358425
0.000314989
0.000351888
0.000292488
0.000392643
0.00033512
0.000304633
0.000351519
0.000291572
0.000381675
0.000307654
0.000294834
0.000349682
0.000282557
0.000364413
0.000281646
0.000285703
0.000347932
0.000275672
0.000342786
0.000262548
0.000277886
0.000345163
0.000264096
0.000321249
0.000250955
0.000271164
0.000341913
0.000257125
0.000285461
0.000246265
0.000269989
0.000337232
0.000236821
0.000221378
0.000241577
0.000268651
0.000335028
0.000235519
0.000245897
0.00025722
0.000269937
0.000330811
0.000181729
0.000623269
0.000674326
0.000549421
0.000235038
0.000185246
0.00064921
0.000705698
0.000580227
0.000244052
0.000187003
0.000654182
0.000711424
0.000584498
0.000244428
0.000190207
0.000671885
0.000732739
0.000605268
0.000250036
0.000192333
0.000684101
0.000747228
0.000618234
0.000253216
0.000195617
0.000700573
0.000766965
0.000637352
0.000258402
0.000198224
0.000715221
0.000784425
0.000653217
0.000262319
0.000201658
0.000732359
0.000804884
0.000672802
0.000267671
0.000204741
0.000748999
0.000824784
0.000691034
0.000272207
0.000208433
0.000767508
0.000846846
0.000711846
0.000277849
0.000211995
0.000786231
0.000869265
0.000732426
0.000283001
0.000216044
0.000806629
0.000893588
0.000755066
0.000289022
0.000220106
0.000827711
0.000918834
0.000778183
0.000294791
0.000224592
0.000850455
0.000945996
0.000803199
0.000301254
0.000229182
0.000874235
0.000974487
0.000829178
0.000307628
0.000234162
0.000899734
0.00100502
0.000857081
0.000314564
0.00023931
0.000926554
0.00103709
0.000886306
0.000321509
0.000244828
0.000955188
0.00107124
0.000917571
0.0003289
0.00025056
0.000985381
0.0011072
0.00095044
0.00033634
0.000256658
0.00101745
0.00114535
0.000985449
0.000344107
0.000263004
0.00105123
0.00118539
0.00102226
0.000351902
0.00026971
0.00108694
0.00122753
0.00106127
0.000359888
0.000276691
0.00112449
0.00127156
0.00110204
0.000367815
0.000284029
0.00116403
0.00131829
0.00114428
0.000375759
0.000291665
0.00120527
0.00136656
0.0011882
0.000383495
0.000299665
0.00124837
0.00141676
0.00123336
0.000391021
0.000307977
0.00129311
0.00146836
0.00127927
0.000398117
0.000316655
0.00133944
0.00152118
0.00132538
0.000404719
0.000325696
0.00138716
0.00157464
0.00137067
0.000410603
0.000335324
0.0014362
0.00162826
0.00141408
0.000415657
0.000345701
0.00148579
0.0016811
0.00145404
0.000419621
0.00035745
0.00153568
0.00173233
0.00148866
0.000422922
0.00037006
0.00158528
0.00178075
0.00151556
0.000423845
0.000383131
0.0016339
0.00182504
0.0015323
0.000424508
0.000396458
0.00168063
0.00186367
0.00152535
0.000424111
0.000409905
0.00172478
0.00189732
0.00152076
0.000422327
0.000422966
0.00176424
0.00192173
0.00148772
0.000419941
0.000435363
0.00179755
0.00193755
0.00143181
0.000417015
0.000446221
0.00182056
0.00193321
0.0013578
0.000414269
0.000455203
0.00182887
0.00191662
0.00126645
0.000411237
0.00045952
0.00182617
0.0018978
0.00117272
0.000411312
0.000458067
0.00177671
0.00177832
0.00107428
0.000410511
0.000452087
0.00171642
0.00164812
0.000979607
0.000410997
0.000437264
0.00163572
0.00145799
0.000877111
0.000412001
0.000416909
0.00149179
0.00124032
0.00078723
0.000414802
0.000394923
0.0013155
0.000982733
0.000721063
0.000418482
0.000370019
0.00115351
0.00071344
0.000685414
0.000425033
0.000344766
0.000919355
0.000482091
0.000678423
0.000435326
0.000294757
0.000436669
0.000351435
0.000813138
0.000446944
0.000254663
0.000282497
0.000327246
0.000920998
0.000464643
0.000189991
0.000724466
0.000798498
0.000637861
0.000234435
0.000193731
0.000753895
0.000833962
0.000671884
0.000243582
0.000195641
0.000760395
0.000841034
0.000677206
0.00024402
0.000199036
0.000780637
0.00086506
0.000700064
0.000249776
0.000201315
0.000795199
0.000882039
0.000714884
0.000253073
0.000204784
0.000814167
0.00090434
0.000735855
0.00025841
0.000207569
0.000831439
0.000924586
0.000753847
0.000262493
0.000211183
0.000851264
0.000947796
0.00077535
0.000268013
0.000214462
0.000870756
0.000970687
0.000795874
0.000272768
0.00021834
0.000892195
0.000995742
0.000818766
0.000278613
0.000222112
0.000914021
0.00102138
0.000841789
0.000284036
0.000226356
0.000937619
0.00104894
0.000866715
0.00029031
0.000230643
0.000962088
0.00107764
0.000892449
0.00029641
0.00023534
0.000988334
0.00110827
0.000919984
0.000303193
0.000240176
0.00101583
0.00114041
0.000948822
0.000309971
0.00024539
0.00104521
0.00117471
0.000979582
0.00031731
0.000250797
0.00107617
0.00121111
0.001012
0.000324746
0.000256567
0.00110909
0.00124978
0.00104648
0.000332642
0.000262595
0.0011438
0.00129057
0.00108296
0.000340677
0.00026898
0.00118058
0.00133371
0.00112173
0.000349072
0.000275649
0.00121932
0.00137914
0.00116259
0.000357588
0.000282681
0.0012602
0.001427
0.00120576
0.000366344
0.000290019
0.00130313
0.00147719
0.00125104
0.000375142
0.000297721
0.00134816
0.00152975
0.00129848
0.000384022
0.000305751
0.00139516
0.00158433
0.00134785
0.000392797
0.000314152
0.00144412
0.00164089
0.00139895
0.000401438
0.000322903
0.00149491
0.00169926
0.00145114
0.000409753
0.000332042
0.00154733
0.00175891
0.00150409
0.000417657
0.000341575
0.00160114
0.00181933
0.00155685
0.000424939
0.000351572
0.00165591
0.0018799
0.00160853
0.000431477
0.000362333
0.00171116
0.00193978
0.00165772
0.000437064
0.000374786
0.00176638
0.00199802
0.00170283
0.00044161
0.000388071
0.00182095
0.00205341
0.00174175
0.000444313
0.000401771
0.00187404
0.0021046
0.00177209
0.000446297
0.000415711
0.00192459
0.00214999
0.00179077
0.000446638
0.00042968
0.00197131
0.00218792
0.00178929
0.000446037
0.000443312
0.00201241
0.00221721
0.0017778
0.000444122
0.000456226
0.002045
0.00223422
0.00175092
0.00044162
0.000467377
0.00206504
0.00223379
0.00168624
0.000437881
0.000476277
0.00206583
0.00220724
0.00161197
0.000434577
0.000480944
0.00205882
0.00218666
0.00150874
0.000430924
0.000479358
0.00200157
0.00207368
0.00138944
0.000428217
0.00047266
0.00192513
0.0019363
0.00126926
0.00042745
0.000457138
0.00181623
0.00171501
0.00113696
0.000427074
0.000434084
0.00165037
0.00144574
0.00100169
0.000429595
0.00040886
0.00144761
0.00112822
0.000901224
0.000433788
0.000382715
0.00125693
0.000794124
0.000849845
0.00044206
0.000356343
0.000994858
0.000512982
0.000845869
0.000453952
0.000303899
0.000447692
0.000369805
0.00104014
0.000470321
0.000260953
0.000279668
0.000330535
0.00123422
0.000494728
0.000180946
0.00062651
0.000673727
0.000550233
0.000235471
0.000184451
0.000652182
0.000704801
0.000580968
0.000244474
0.0001862
0.000657231
0.000710516
0.000585178
0.00024485
0.000189381
0.000674807
0.000731629
0.000605916
0.000250443
0.000191484
0.00068697
0.000745993
0.000618801
0.000253614
0.000194743
0.000703319
0.000765547
0.00063788
0.000258786
0.000197323
0.000717866
0.000782849
0.000653666
0.000262688
0.000200726
0.000734871
0.000803123
0.000673201
0.000268024
0.000203778
0.000751379
0.000822848
0.000691357
0.000272544
0.000207436
0.000769736
0.000844724
0.000712113
0.000278167
0.000210964
0.000788302
0.000866962
0.000732617
0.000283297
0.000214976
0.000808528
0.000891102
0.000755192
0.000289295
0.000219002
0.000829427
0.000916171
0.000778226
0.000295034
0.00022345
0.000851968
0.000943159
0.000803161
0.000301467
0.000228007
0.000875538
0.000971485
0.000829038
0.000307805
0.000232957
0.000900804
0.00100176
0.000856829
0.0003147
0.000238083
0.000927392
0.00103353
0.000885923
0.000321599
0.000243584
0.000955774
0.00106744
0.000917045
0.000328938
0.000249308
0.000985709
0.00110311
0.000949674
0.000336318
0.000255398
0.00101752
0.00114096
0.000984412
0.000344021
0.000261745
0.00105104
0.00118068
0.0010209
0.000351742
0.000268457
0.00108648
0.0012225
0.00105954
0.000359646
0.00027545
0.00112378
0.00126638
0.00109975
0.000367482
0.000282802
0.00116299
0.0013126
0.00114163
0.000375327
0.000290453
0.00120397
0.00136047
0.00118498
0.000382952
0.000298459
0.00124673
0.00141016
0.00122958
0.00039036
0.000306765
0.00129111
0.00146122
0.00127481
0.000397327
0.000315438
0.00133708
0.00151345
0.00132019
0.000403798
0.000324609
0.0013845
0.00156625
0.00136464
0.000409553
0.000334328
0.00143268
0.001619
0.00140714
0.000414517
0.000344935
0.00148144
0.00167093
0.00144597
0.000418537
0.000356916
0.00153036
0.00172118
0.00147947
0.00042084
0.00036961
0.00157887
0.00176857
0.00150542
0.000422689
0.000382721
0.00162629
0.0018119
0.00151945
0.000422967
0.000396016
0.00167169
0.0018499
0.00151364
0.000422587
0.000409355
0.0017141
0.00188293
0.00150925
0.000420832
0.000422172
0.00175131
0.00190695
0.00147293
0.000418505
0.000434197
0.00178162
0.00192352
0.00142079
0.00041572
0.0004445
0.00180028
0.00192156
0.00134656
0.000412956
0.000452465
0.00180227
0.0019083
0.00125973
0.000411525
0.000455705
0.00179547
0.00189208
0.00116888
0.000409776
0.000453724
0.00173987
0.00178427
0.00107559
0.000409756
0.000446883
0.00167114
0.00166785
0.000982625
0.000410239
0.000433859
0.00157741
0.00149409
0.000881684
0.000411179
0.000409127
0.00146976
0.00128038
0.000789338
0.000413852
0.000386505
0.00132971
0.00100626
0.000717712
0.000417449
0.000362734
0.00118611
0.000726911
0.000681291
0.000423763
0.000342159
0.000950014
0.000482456
0.00067297
0.000433796
0.000295847
0.000448045
0.00035309
0.000801359
0.000445035
0.000255708
0.000280222
0.000325329
0.000910445
0.000462797
0.000139396
0.00020186
0.000231654
0.000236659
0.000230584
0.000141364
0.000208402
0.000234881
0.000245442
0.000238178
0.000142203
0.000208931
0.000239451
0.000245731
0.000238246
0.000143955
0.000213314
0.000243822
0.000251086
0.000242718
0.000145063
0.000215856
0.000247077
0.000254065
0.000245119
0.000146895
0.00021999
0.000251959
0.000258958
0.00024913
0.000148265
0.000223191
0.00025572
0.000262569
0.000251977
0.000150218
0.0002275
0.000260794
0.00026755
0.00025601
0.00015186
0.000231269
0.000265138
0.000271662
0.000259178
0.000153977
0.000235874
0.000270479
0.000276826
0.000263292
0.0001559
0.000240199
0.000275394
0.000281413
0.000266756
0.000158217
0.000245184
0.000281079
0.000286813
0.000270971
0.000160428
0.000250062
0.000286551
0.000291845
0.000274699
0.000162975
0.000255483
0.000292636
0.000297506
0.000279014
0.000165477
0.000260909
0.000298651
0.000302939
0.000282959
0.000168279
0.000266794
0.000305169
0.000308852
0.000287349
0.000171085
0.000272742
0.000311712
0.000314616
0.000291444
0.000174188
0.000279071
0.000318683
0.000320724
0.000295853
0.000177334
0.000285478
0.000325746
0.000326702
0.000300006
0.000180662
0.000292191
0.000333195
0.000332885
0.000304351
0.000184023
0.00029896
0.000340758
0.000338907
0.000308445
0.00018762