/*--------------------------------*- C++ -*----------------------------------*\
| =========                 |                                                 |
| \\      /  F ield         | OpenFOAM: The Open Source CFD Toolbox           |
|  \\    /   O peration     | Version:                                        |
|   \\  /    A nd           | Website:  www.openfoam.com                      |
|    \\/     M anipulation  |                                                 |
\*---------------------------------------------------------------------------*/
FoamFile
{
    version     2.0;
    format      ascii;
    class       volScalarField;
    location    "1.5";
    object      p;
}
// * * * * * * * * * * * * * * * * * * * * * * * * * * * * * * * * * * * * * //

dimensions      [0 2 -2 0 0 0 0];


internalField   nonuniform List<scalar> 
3875
(
12.4108
10.886
10.0023
9.73966
9.61833
9.47904
9.34136
9.22164
9.11381
9.01042
8.90915
8.80957
8.71141
8.6142
8.5177
8.4216
8.32569
8.22973
8.1344
8.03927
7.94436
7.84932
7.7544
7.65924
7.56415
7.46872
7.37338
7.27766
7.18211
7.08604
6.9902
6.89373
6.79764
6.70082
6.60462
6.5076
6.41171
6.3151
6.2207
6.12633
6.03692
5.95078
5.87727
5.81602
5.78877
5.79524
5.86462
5.97694
6.0273
6.01123
9.93019
9.66272
9.45723
9.33739
9.26081
9.18185
9.09794
9.0163
8.9371
8.8579
8.77754
8.69584
8.61292
8.52887
8.44375
8.35764
8.27075
8.18333
8.09486
8.00545
7.91522
7.82432
7.73278
7.64072
7.54809
7.45504
7.36145
7.2676
7.17333
7.07882
6.98383
6.8887
6.79306
6.69743
6.60125
6.50534
6.40889
6.31324
6.21726
6.12307
6.0293
5.94092
5.85644
5.78674
5.73798
5.7313
5.80834
6.02838
6.55541
7.82514
10.7408
10.1888
9.90563
9.78483
9.66961
9.55055
9.42771
9.30707
9.19115
9.07899
8.97007
8.86343
8.75877
8.65571
8.55408
8.45348
8.3537
8.25418
8.15546
8.05741
7.95999
7.86286
7.76609
7.66941
7.57294
7.4764
7.37997
7.28341
7.18696
7.0903
6.99371
6.89687
6.80009
6.70301
6.60598
6.50866
6.41139
6.31394
6.21669
6.11879
6.02112
5.92359
5.82708
5.73134
5.64646
5.58213
5.58964
5.7555
6.40246
7.86987
9.93014
9.66279
9.45723
9.33737
9.26082
9.18185
9.09795
9.01628
8.9371
8.8579
8.77756
8.69584
8.61294
8.52887
8.44377
8.35764
8.27078
8.18332
8.09488
8.00543
7.91524
7.8243
7.7328
7.64069
7.54813
7.455
7.36147
7.26755
7.17335
7.07872
6.98383
6.8885
6.79296
6.69696
6.60078
6.50407
6.40717
6.30952
6.21156
6.11194
6.01096
5.9056
5.79574
5.67391
5.5405
5.38694
5.21885
5.05502
5.00166
5.79114
12.4107
10.8862
10.0023
9.73963
9.61832
9.47906
9.34135
9.22165
9.1138
9.01043
8.90915
8.80959
8.71141
8.61423
8.5177
8.42163
8.32568
8.22976
8.13439
8.03931
7.94433
7.84936
7.75436
7.65928
7.5641
7.46876
7.3733
7.27771
7.18199
7.08607
6.98998
6.89367
6.79717
6.70042
6.60343
6.50608
6.40832
6.30993
6.2106
6.1094
6.00505
5.89569
5.7768
5.63641
5.4707
5.23948
4.90534
4.30861
3.12182
0.981305
9.93073
9.66407
9.45887
9.336
9.26051
9.18181
9.09794
9.01629
8.93711
8.85789
8.77756
8.69582
8.61294
8.52885
8.44377
8.35761
8.27078
8.1833
8.09488
8.00542
7.91524
7.82428
7.73281
7.64067
7.54815
7.45499
7.3615
7.26754
7.1734
7.07874
6.98394
6.88861
6.79325
6.69738
6.60161
6.50545
6.40971
6.31395
6.21943
6.12605
6.03622
5.95107
5.87688
5.81668
5.78676
5.79319
5.85613
5.94645
5.95904
5.7916
7.4402
8.47843
8.81855
8.84871
8.86503
8.87089
8.85158
8.81428
8.76773
8.71468
8.65554
8.59128
8.52294
8.45131
8.3768
8.29984
8.22071
8.13977
8.05706
7.97277
7.88706
7.80013
7.71204
7.62301
7.53305
7.44241
7.35107
7.25901
7.16621
7.07292
6.97902
6.88473
6.78991
6.69485
6.59932
6.50375
6.40788
6.31234
6.21699
6.12284
6.03002
5.94109
5.85779
5.78773
5.74066
5.73114
5.80316
6.00449
6.49114
7.63932
8.12903
8.93863
9.28586
9.30529
9.26787
9.23007
9.17145
9.09559
9.01363
8.9296
8.84318
8.75489
8.66566
8.57573
8.48534
8.39442
8.30312
8.21135
8.11927
8.02682
7.93409
7.84098
7.74759
7.65385
7.55988
7.46563
7.37112
7.27618
7.18094
7.08544
6.98973
6.89381
6.79764
6.7013
6.60468
6.50796
6.41094
6.31398
6.21668
6.11942
6.02178
5.92491
5.82791
5.73465
5.647
5.58548
5.58586
5.73473
6.35256
7.75282
7.44021
8.47847
8.81856
8.84869
8.86504
8.87089
8.85159
8.81427
8.76773
8.71468
8.65555
8.59127
8.52296
8.45131
8.37682
8.29984
8.22073
8.13976
8.05707
7.97276
7.88708
7.80011
7.71206
7.62299
7.53307
7.44237
7.35109
7.25896
7.16622
7.07286
6.97899
6.88458
6.78976
6.69445
6.59878
6.50261
6.40603
6.30883
6.211
6.11172
6.01041
5.90537
5.79474
5.67361
5.53553
5.38426
5.20853
5.03108
4.93482
5.66416
9.93067
9.66418
9.45885
9.33599
9.26051
9.18184
9.09793
9.0163
8.93709
8.8579
8.77755
8.69585
8.61293
8.52888
8.44377
8.35765
8.27077
8.18334
8.09486
8.00545
7.91521
7.82432
7.73277
7.64071
7.54809
7.45502
7.36143
7.26757
7.1733
7.07874
6.98376
6.88851
6.79284
6.69691
6.60052
6.50379
6.40646
6.30849
6.20961
6.10843
6.00375
5.89434
5.77723
5.63174
5.4684
5.23431
4.89557
4.26502
3.01077
0.621655
10.7419
10.1922
9.91294
9.77886
9.66902
9.55054
9.42763
9.30708
9.19114
9.07898
8.97007
8.86344
8.75877
8.65571
8.55409
8.45348
8.3537
8.25418
8.15546
8.0574
7.95998
7.86285
7.76609
7.6694
7.57294
7.47639
7.37998
7.28341
7.18697
7.09031
6.99376
6.89694
6.80025
6.70327
6.60647
6.50951
6.41296
6.31665
6.22132
6.12781
6.03724
5.95188
5.87695
5.81686
5.78668
5.79122
5.8518
5.92305
5.86927
5.70716
8.12904
8.9382
9.28849
9.30267
9.26758
9.23007
9.17142
9.09561
9.01362
8.92962
8.84317
8.75491
8.66565
8.57575
8.48532
8.39444
8.3031
8.21137
8.11924
8.02684
7.93406
7.841
7.74756
7.65387
7.55984
7.46567
7.37108
7.27623
7.1809
7.0855
6.9897
6.89392
6.79767
6.70153
6.60491
6.50857
6.41182
6.31577
6.21966
6.12518
6.03171
5.94264
5.85857
5.78836
5.74069
5.72974
5.79959
5.98739
6.48064
7.50311
8.78421
9.42634
9.75898
9.81205
9.67287
9.56406
9.46563
9.35339
9.23706
9.12253
9.00976
8.89881
8.79012
8.68348
8.57865
8.47525
8.37313
8.27192
8.17148
8.07167
7.97252
7.87385
7.77562
7.67763
7.57978
7.48206
7.38471
7.28744
7.1903
7.09318
6.99616
6.89906
6.80195
6.70472
6.60741
6.50998
6.41246
6.31492
6.21728
6.11965
6.02184
5.9245
5.82729
5.73381
5.64547
5.58288
5.58089
5.7168
6.31986
7.6771
8.12902
8.93821
9.2885
9.30267
9.26759
9.23008
9.17143
9.09561
9.01363
8.92962
8.84318
8.75491
8.66566
8.57575
8.48534
8.39443
8.30312
8.21136
8.11926
8.02682
7.93408
7.84098
7.74758
7.65384
7.55987
7.46562
7.37111
7.27617
7.18094
7.08539
6.98971
6.89371
6.79757
6.70107
6.60442
6.50733
6.40998
6.31204
6.21359
6.11396
6.01194
5.9066
5.7948
5.67462
5.53375
5.38239
5.20096
5.01349
4.90033
5.59879
10.7418
10.1923
9.91292
9.77885
9.66902
9.55057
9.42763
9.30709
9.19113
9.079
8.97006
8.86346
8.75877
8.65574
8.55408
8.45351
8.35369
8.25421
8.15545
8.05743
7.95996
7.86287
7.76606
7.66942
7.57291
7.47641
7.37992
7.28342
7.1869
7.09028
6.99361
6.89679
6.79988
6.70274
6.60545
6.50775
6.40962
6.31065
6.21177
6.11029
6.0054
5.89373
5.77476
5.63155
5.46741
5.23068
4.88781
4.23749
2.95086
0.474324
9.93083
9.66425
9.45905
9.33596
9.26051
9.18184
9.09795
9.0163
8.93711
8.8579
8.77756
8.69584
8.61294
8.52887
8.44378
8.35763
8.27078
8.18331
8.09489
8.00542
7.91524
7.82428
7.7328
7.64067
7.54813
7.45498
7.3615
7.26753
7.1734
7.07873
6.98393
6.8886
6.79323
6.69736
6.6016
6.50544
6.40973
6.31397
6.21947
6.12611
6.03628
5.95109
5.87691
5.81665
5.78695
5.79267
5.8573
5.93889
5.93593
5.84081
7.44035
8.47878
8.81935
8.84831
8.86504
8.87093
8.85159
8.81429
8.76773
8.7147
8.65554
8.5913
8.52295
8.45133
8.3768
8.29986
8.2207
8.13978
8.05704
7.97279
7.88704
7.80014
7.71202
7.62302
7.53303
7.44243
7.35103
7.25903
7.16617
7.07293
6.97897
6.88475
6.78986
6.69487
6.59927
6.50379
6.40783
6.31244
6.21694
6.12298
6.02998
5.94123
5.85759
5.7879
5.74055
5.73068
5.80455
5.99841
6.50969
7.58718
8.12917
8.93906
9.28581
9.30561
9.2679
9.2301
9.17147
9.09561
9.01363
8.92962
8.84318
8.75491
8.66566
8.57575
8.48534
8.39443
8.30312
8.21136
8.11926
8.02682
7.93408
7.84098
7.74758
7.65385
7.55987
7.46563
7.3711
7.27618
7.18092
7.08543
6.9897
6.8938
6.79762
6.7013
6.60466
6.50798
6.41093
6.31403
6.21667
6.11945
6.02182
5.92483
5.82766
5.73494
5.64704
5.58546
5.58563
5.73061
6.34332
7.73646
7.44034
8.47881
8.81937
8.8483
8.86505
8.87093
8.8516
8.81428
8.76774
8.71469
8.65556
8.59129
8.52297
8.45132
8.37683
8.29985
8.22073
8.13977
8.05707
7.97276
7.88707
7.80011
7.71205
7.62298
7.53305
7.44237
7.35108
7.25895
7.1662
7.07285
6.97896
6.88457
6.78973
6.69445
6.59875
6.50262
6.40602
6.30887
6.21098
6.11182
6.01039
5.90533
5.7935
5.67449
5.53566
5.38404
5.20797
5.02778
4.93006
5.65931
9.93075
9.66435
9.45904
9.33594
9.26052
9.18186
9.09796
9.01631
8.93711
8.85792
8.77756
8.69586
8.61294
8.5289
8.44378
8.35766
8.27077
8.18335
8.09486
8.00545
7.9152
7.82431
7.73276
7.64071
7.54808
7.45502
7.36141
7.26756
7.17328
7.07874
6.98373
6.8885
6.79281
6.6969
6.6005
6.5038
6.40646
6.30853
6.20959
6.10874
6.00482
5.8928
5.7744
5.63411
5.46862
5.23365
4.89453
4.26222
3.00749
0.617858
12.4109
10.8861
10.0024
9.73967
9.61836
9.47907
9.34138
9.22166
9.11382
9.01043
8.90916
8.80959
8.71143
8.61423
8.51771
8.42162
8.3257
8.22974
8.1344
8.03928
7.94435
7.84932
7.75438
7.65924
7.56413
7.46872
7.37335
7.27766
7.18207
7.08605
6.99014
6.89374
6.79758
6.70084
6.60455
6.50766
6.41164
6.31523
6.22065
6.12653
6.03691
5.95107
5.87716
5.8166
5.78828
5.79247
5.8658
5.9717
6.0344
6.0608
9.93021
9.66278
9.45729
9.33749
9.26086
9.18188
9.09796
9.01631
8.93711
8.85792
8.77756
8.69586
8.61294
8.52889
8.44377
8.35765
8.27076
8.18334
8.09486
8.00545
7.9152
7.82432
7.73276
7.64072
7.54807
7.45504
7.36141
7.2676
7.17329
7.07881
6.98379
6.88869
6.79302
6.69743
6.60122
6.50535
6.40888
6.31331
6.21729
6.12312
6.02954
5.94091
5.85646
5.78684
5.73825
5.73033
5.80897
6.0213
6.5439
7.73757
10.7407
10.1886
9.90489
9.78546
9.66968
9.55057
9.42773
9.3071
9.19116
9.07901
8.97008
8.86346
8.75878
8.65574
8.5541
8.4535
8.3537
8.2542
8.15545
8.05741
7.95997
7.86285
7.76606
7.6694
7.57292
7.47639
7.37994
7.28341
7.18692
7.09029
6.99366
6.89687
6.80003
6.70302
6.60593
6.50868
6.41135
6.31409
6.21665
6.11866
6.0212
5.92349
5.82685
5.73151
5.64651
5.58171
5.58808
5.74683
6.38219
7.84199
9.93017
9.66284
9.45729
9.33747
9.26087
9.18189
9.09798
9.01631
8.93712
8.85792
8.77757
8.69586
8.61295
8.52889
8.44379
8.35766
8.27079
8.18333
8.09488
8.00543
7.91522
7.82429
7.73278
7.64068
7.54811
7.45499
7.36144
7.26753
7.17332
7.07871
6.98379
6.88848
6.79292
6.69694
6.60076
6.50406
6.40718
6.30955
6.21156
6.11187
6.01063
5.90528
5.79539
5.67423
5.54044
5.38636
5.21685
5.04921
4.99192
5.78101
12.4107
10.8863
10.0024
9.73964
9.61836
9.4791
9.34139
9.22168
9.11382
9.01045
8.90916
8.80961
8.71143
8.61426
8.51771
8.42165
8.32569
8.22977
8.13438
8.03931
7.94431
7.84935
7.75434
7.65927
7.56407
7.46875
7.37327
7.27769
7.18195
7.08606
6.98994
6.89365
6.79713
6.70041
6.6034
6.50609
6.40832
6.30996
6.21057
6.1094
6.00502
5.89499
5.77617
5.63703
5.47077
5.23872
4.90333
4.30422
3.11673
0.976697
5.76258
9.7411
17.245
24.9342
29.0032
10.4984
16.0833
23.5699
29.2391
32.4815
11.0758
16.5664
24.1798
30.1449
34.0215
7.80723
13.7918
22.0647
27.9907
31.2967
-2.91563
3.39688
14.0997
22.2741
25.9891
5.0898
9.63676
17.1949
25.2316
30.3692
10.2649
15.8481
23.3126
29.7422
33.5491
10.8939
16.4882
24.1745
30.6239
34.8691
7.54329
13.5819
22.001
28.3672
32.2452
-3.66025
3.33336
13.8946
22.6744
27.3896
4.73664
9.87135
17.3918
25.6268
30.9714
10.1825
15.8534
23.4059
30.0949
34.0621
10.8466
16.5385
24.2976
30.8776
35.206
7.50368
13.589
22.0545
28.586
32.6484
-3.90894
3.45424
14.0596
22.9719
27.9078
5.04621
9.76886
17.1974
25.2676
30.3919
10.2847
15.8553
23.3391
29.7692
33.5618
10.8989
16.4966
24.1876
30.6301
34.8731
7.54599
13.5863
22.0043
28.3707
32.2517
-3.66124
3.334
13.9001
22.6798
27.3929
5.72789
9.77174
17.2888
25.0381
29.0423
10.5082
16.1085
23.6338
29.2799
32.5124
11.0765
16.5825
24.1881
30.1413
34.0304
7.80678
13.7933
22.0679
27.9965
31.3102
-2.91686
3.398
14.1087
22.2897
25.9997
10.0064
10.0006
9.99874
9.99747
9.9947
10.0054
9.99932
9.99863
9.99918
9.99758
10.0038
9.99759
9.99595
9.99355
9.99177
10.0002
9.99338
9.99033
9.9875
9.98459
9.99476
9.98737
9.98338
9.97933
9.97546
9.98709
9.97907
9.97434
9.96966
9.96505
9.97713
9.96856
9.96311
9.95766
9.95217
9.96457
9.95541
9.94935
9.94326
9.93709
9.94922
9.93947
9.93268
9.92586
9.91877
9.93069
9.92028
9.91282
9.9053
9.89737
9.90863
9.89752
9.88921
9.88084
9.87184
9.88252
9.87064
9.86151
9.85227
9.84221
9.85187
9.83914
9.829
9.8187
9.80734
9.81599
9.80236
9.7912
9.7798
9.76707
9.77418
9.75955
9.74718
9.73445
9.72013
9.72559
9.70987
9.69628
9.68213
9.66613
9.66921
9.65231
9.63732
9.62151
9.6036
9.60393
9.58577
9.56938
9.55178
9.53187
9.52851
9.50897
9.491
9.47135
9.44925
9.44151
9.42051
9.40097
9.37908
9.3547
9.34128
9.31872
9.29746
9.27301
9.24622
9.22601
9.20179
9.17884
9.15161
9.12236
9.09355
9.06759
9.04285
9.01249
8.98072
8.94155
8.9138
8.88737
8.8536
8.81931
8.76725
8.73767
8.70956
8.67202
8.63526
8.56761
8.53616
8.50658
8.46508
8.42595
8.33918
8.30576
8.27491
8.22926
8.18793
8.07823
8.04276
8.01096
7.96118
7.91789
7.78054
7.74285
7.71036
7.65635
7.61157
7.44048
7.40081
7.36816
7.3103
7.2648
7.05108
7.00995
6.97853
6.91788
6.87268
6.60684
6.56405
6.53538
6.474
6.43061
6.10069
6.05631
6.03183
5.97267
5.93352
5.52529
5.47936
5.46076
5.40805
5.37686
4.87324
4.82607
4.81598
4.77533
4.75701
4.13857
4.09139
4.10209
4.07348
4.07279
3.31754
3.26925
3.29247
3.29915
3.32471
2.41111
2.36054
2.40444
2.44825
2.51657
1.427
1.37177
1.4435
1.53868
1.66242
0.385047
0.317994
0.424683
0.588899
0.790966
-0.686425
-0.775097
-0.61907
-0.362218
-0.0557043
-1.74134
-1.86795
-1.65345
-1.2801
-0.83008
-2.71226
-2.90749
-2.61587
-2.10034
-1.48261
-3.50458
-3.82545
-3.38325
-2.62915
-1.75774
-4.0243
-4.48371
-3.79131
-2.69836
-1.4739
-4.22873
-4.76567
-3.81972
-2.14712
-0.528249
-4.16124
-4.72026
-3.68005
-1.01397
1.26779
-4.0216
-4.44471
-3.40417
1.13965
4.89522
-3.93567
-3.71798
-1.45338
6.1061
11.8892
-3.42599
-0.800678
6.23436
15.3873
21.592
10.0058
9.99924
9.99676
9.98807
9.98701
10.0049
9.99694
9.99294
9.98463
9.98501
10.0037
9.99543
9.98936
9.97849
9.9787
10
9.99084
9.98357
9.97067
9.97008
9.99463
9.98485
9.97637
9.96158
9.96021
9.98687
9.97635
9.96692
9.95057
9.94876
9.97689
9.96576
9.95531
9.93737
9.93492
9.96427
9.95244
9.94103
9.92147
9.91864
9.9489
9.93638
9.92387
9.90257
9.89911
9.93032
9.91701
9.90339
9.88019
9.87626
9.90824
9.8941
9.87918
9.85388
9.84926
9.88209
9.86703
9.85074
9.82312
9.8179
9.85142
9.83534
9.81749
9.78728
9.78126
9.81551
9.79829
9.77878
9.74572
9.73894
9.77366
9.75521
9.73383
9.69759
9.68984
9.72496
9.70518
9.68183
9.64206
9.63336
9.66853
9.64727
9.62173
9.57803
9.56822
9.60326
9.58032
9.55245
9.5044
9.49356
9.52783
9.5031
9.47269
9.41978
9.40783
9.44084
9.41414
9.38103
9.32277
9.30983
9.34063
9.31182
9.27578
9.21156
9.19771
9.22536
9.19428
9.15513
9.08435
9.06985
9.09291
9.0594
9.01693
8.93887
8.924
8.94091
8.9048
8.85889
8.77285
8.75805
8.76664
8.72776
8.67823
8.58345
8.56926
8.56705
8.52524
8.47197
8.36772
8.35494
8.33866
8.29373
8.23665
8.12217
8.11175
8.07753
8.02928
7.96843
7.84314
7.83631
7.77914
7.72741
7.66297
7.52645
7.52458
7.43917
7.38312
7.31545
7.16766
7.1724
7.05091
6.99072
6.92032
6.76163
6.77496
6.60757
6.54356
6.4715
6.30312
6.32749
6.10259
6.03492
5.96256
5.78665
5.82483
5.52913
5.45796
5.38727
5.20712
5.26214
4.88027
4.80592
4.74001
4.56038
4.63547
4.15023
4.07307
4.01594
3.84443
3.94391
3.33529
3.25533
3.2132
3.05883
3.18775
2.43574
2.35278
2.33255
2.206
2.37139
1.45722
1.37222
1.38146
1.29646
1.50765
0.415333
0.326139
0.376932
0.354024
0.626561
-0.660941
-0.762716
-0.652152
-0.579335
-0.229778
-1.71973
-1.84916
-1.66964
-1.47614
-1.01285
-2.69312
-2.88093
-2.62402
-2.27149
-1.63274
-3.49777
-3.8054
-3.41227
-2.82073
-1.88934
-4.05713
-4.47713
-3.88438
-2.94752
-1.59934
-4.31952
-4.77463
-3.98905
-2.51316
-0.593184
-4.31194
-4.76313
-3.77885
-1.42272
1.37529
-4.21677
-4.49305
-3.22695
0.880522
5.26681
-4.1845
-3.63363
-1.1915
6.14407
12.7702
-4.3195
-0.548108
6.28505
15.8786
23.0157
10.0079
10.0025
10.0009
9.99451
9.99641
10.0067
9.99988
9.99713
9.99029
9.99412
10.0052
9.99822
9.99356
9.98505
9.98791
10.0015
9.99356
9.98788
9.97779
9.98085
9.99608
9.98762
9.98081
9.96911
9.97137
9.98834
9.97919
9.97156
9.95855
9.96072
9.97838
9.96867
9.96011
9.94578
9.94741
9.96579
9.95544
9.94607
9.93042
9.93197
9.95044
9.93946
9.92913
9.91204
9.91312
9.9319
9.9202
9.90891
9.89028
9.89119
9.90986
9.89739
9.88496
9.8646
9.86502
9.88376
9.87043
9.85681
9.83455
9.8347
9.85314
9.83887
9.82384
9.79945
9.79907
9.81728
9.80196
9.78545
9.75878
9.75782
9.77549
9.75903
9.74084
9.7116
9.70973
9.72688
9.70914
9.68917
9.6571
9.65436
9.67054
9.65138
9.62942
9.59414
9.59033
9.60533
9.58463
9.5605
9.52166
9.51685
9.52998
9.50759
9.48108
9.43823
9.43229
9.44305
9.41882
9.38975
9.34246
9.33549
9.34291
9.31666
9.2848
9.23253
9.22454
9.2277
9.19927
9.16442
9.10662
9.09782
9.0953
9.06451
9.02642
8.96246
8.95303
8.94333
8.90997
8.86846
8.79772
8.78806
8.76908
8.73294
8.68774
8.60953
8.60014
8.56951
8.53035
8.48133
8.39487
8.38655
8.34112
8.2987
8.24575
8.15019
8.14391
8.07999
8.03407
7.9771
7.87172
7.86882
7.78166
7.73196
7.67096
7.55514
7.5572
7.44117
7.38735
7.32245
7.19584
7.20492
7.05264
6.99445
6.92596
6.78866
6.80725
6.60957
6.54696
6.47556
6.32839
6.35953
6.10518
6.03822
5.96502
5.8097
5.85682
5.53267
5.46151
5.38821
5.22797
5.29486
4.88529
4.81019
4.73951
4.57967
4.67046
4.15726
4.07892
4.01465
3.86331
3.98092
3.34497
3.26374
3.21137
3.08157
3.22688
2.44826
2.36454
2.3311
2.23792
2.41669
1.47285
1.38688
1.38366
1.34381
1.55811
0.434769
0.345709
0.379392
0.422948
0.683906
-0.636839
-0.735312
-0.649271
-0.490058
-0.160512
-1.6914
-1.81249
-1.66207
-1.36066
-0.928386
-2.66221
-2.83302
-2.61027
-2.12584
-1.52407
-3.47346
-3.75364
-3.41136
-2.66386
-1.77347
-4.05877
-4.45104
-3.92674
-2.81457
-1.48199
-4.352
-4.80806
-4.07049
-2.44891
-0.481726
-4.36741
-4.81895
-3.84642
-1.40054
1.50237
-4.27692
-4.54263
-3.18653
0.965777
5.48303
-4.27363
-3.47984
-0.930676
6.41611
13.1706
-4.87395
-0.0388159
6.76289
16.3435
23.6132
10.0056
9.9996
9.99728
9.98802
9.98694
10.0043
9.99725
9.9937
9.98487
9.98494
10.0028
9.99563
9.99022
9.97882
9.97879
9.99902
9.99097
9.98442
9.97096
9.96997
9.9935
9.98494
9.97724
9.96188
9.96008
9.98565
9.97641
9.96781
9.95086
9.94859
9.9756
9.96581
9.95624
9.93768
9.93475
9.96293
9.9525
9.94202
9.92179
9.91846
9.9475
9.93645
9.92493
9.90291
9.89892
9.92885
9.9171
9.90452
9.88055
9.87607
9.90671
9.8942
9.88039
9.85426
9.84907
9.88049
9.86713
9.85203
9.82353
9.81771
9.84974
9.83544
9.81886
9.78772
9.78106
9.81374
9.79839
9.78024
9.74619
9.73872
9.77183
9.75532
9.7354
9.6981
9.6896
9.72312
9.70531
9.6835
9.64261
9.63311
9.66664
9.64742
9.6235
9.57862
9.56796
9.60124
9.58049
9.55433
9.50504
9.49329
9.52569
9.50329
9.47468
9.42047
9.40755
9.43854
9.41434
9.38314
9.3235
9.30954
9.33817
9.31201
9.27801
9.21235
9.19741
9.2227
9.19445
9.15749
9.08519
9.06953
9.09002
9.05954
9.01943
8.93979
8.92366
8.93775
8.90488
8.86149
8.77385
8.75768
8.76315
8.7277
8.68092
8.58453
8.56885
8.56316
8.52497
8.47471
8.36889
8.35449
8.33433
8.29323
8.23944
8.12347
8.11125
8.07282
8.02866
7.97135
7.84465
7.8357
7.77467
7.72685
7.66612
7.52816
7.52377
7.43413
7.38267
7.31877
7.16944
7.17124
7.045
6.99
6.92358
6.76337
6.77337
6.60125
6.5427
6.47467
6.30491
6.32542
6.09602
6.03402
5.96571
5.7886
5.82231
5.52236
5.45711
5.39051
5.20947
5.25907
4.87356
4.80516
4.7431
4.56296
4.63172
4.14376
4.07257
4.01847
3.84666
3.9394
3.33001
3.25619
3.21566
3.06089
3.18218
2.43254
2.35631
2.33559
2.20952
2.36598
1.45821
1.38008
1.38602
1.30244
1.50386
0.423941
0.342262
0.384178
0.364294
0.625298
-0.639177
-0.730586
-0.6374
-0.562843
-0.225246
-1.68247
-1.79254
-1.64074
-1.44697
-0.999781
-2.63861
-2.79055
-2.57379
-2.22429
-1.60824
-3.4392
-3.68486
-3.35529
-2.76432
-1.8588
-4.02895
-4.40093
-3.86562
-2.90341
-1.57398
-4.33808
-4.84337
-4.02723
-2.49948
-0.582556
-4.38767
-4.93612
-3.88743
-1.43131
1.38427
-4.31418
-4.68753
-3.3312
0.887544
5.30115
-4.25929
-3.63123
-1.1748
6.19554
12.8259
-4.50226
-0.307729
6.38792
15.9323
23.0509
10.0059
10.001
9.9989
9.9967
9.99503
10.0048
9.99967
9.99868
9.99839
9.99774
10.0029
9.99781
9.99602
9.99306
9.9913
9.99915
9.99347
9.99041
9.98677
9.98422
9.99357
9.98737
9.98341
9.97855
9.97501
9.98575
9.97901
9.97435
9.9688
9.9646
9.97567
9.96844
9.9631
9.95675
9.95169
9.96299
9.95526
9.94934
9.94231
9.93657
9.94753
9.93928
9.93266
9.92485
9.91821
9.92886
9.92005
9.91279
9.90421
9.89674
9.90667
9.89725
9.88918
9.87967
9.87113
9.88041
9.87034
9.86148
9.85102
9.84142
9.84959
9.83878
9.82896
9.81735
9.80647
9.81353
9.80193
9.79115
9.77834
9.76611
9.77152
9.75903
9.74711
9.73287
9.71907
9.7227
9.70925
9.69618
9.68041
9.66496
9.66608
9.65157
9.63718
9.61963
9.60231
9.60055
9.58492
9.56919
9.54972
9.53044
9.52483
9.50799
9.49075
9.46907
9.44765
9.43751
9.41936
9.40063
9.37654
9.3529
9.33693
9.31738
9.29702
9.27018
9.24419
9.22124
9.20023
9.17826
9.14843
9.12006
9.08831
9.06576
9.04212
9.00891
8.97809
8.93577
8.91159
8.88638
8.84951
8.81629
8.76085
8.73494
8.7082
8.66732
8.63177
8.56053
8.53284
8.50479
8.45962
8.42191
8.33156
8.30197
8.2727
8.2229
8.18323
8.07049
8.03865
8.0083
7.95372
7.91248
7.772
7.73809
7.70704
7.64771
7.60544
7.43034
7.39472
7.36402
7.30046
7.25789
7.04025
7.00283
6.97352
6.90673
6.86492
6.59539
6.5562
6.52957
6.46133
6.42185
6.08846
6.04773
6.02557
5.95845
5.92352
5.51232
5.47022
5.45466
5.39242
5.36568
4.85976
4.81637
4.81024
4.75811
4.74469
4.12492
4.08058
4.08937
4.0533
4.05942
3.30508
3.25977
3.28485
3.27715
3.31077
2.40237
2.35456
2.40553
2.43163
2.50421
1.42634
1.37328
1.45365
1.52895
1.65427
0.397306
0.333865
0.453073
0.591615
0.789332
-0.653448
-0.73565
-0.563494
-0.338932
-0.0464559
-1.6786
-1.79053
-1.55487
-1.22184
-0.803435
-2.61708
-2.77726
-2.45913
-1.99129
-1.43234
-3.39325
-3.64435
-3.19224
-2.48355
-1.70075
-3.95928
-4.34581
-3.66962
-2.55828
-1.43317
-4.24962
-4.8031
-3.85291
-2.06424
-0.521694
-4.294
-4.92976
-3.89291
-1.00353
1.25549
-4.21415
-4.78613
-3.67202
1.12484
4.90953
-4.12577
-3.83979
-1.50497
6.12219
11.9321
-3.55762
-0.718837
6.28957
15.3846
21.6196
-20.8476
-11.9553
0.133738
10.6265
16.8942
-20.9838
-18.1826
-11.9245
-1.41239
5.20057
-20.9922
-20.5322
-18.436
-9.72812
-4.63972
-20.9653
-21.542
-20.1602
-13.8788
-10.7521
-20.7958
-21.673
-20.0759
-15.8619
-14.0027
-20.3105
-21.1021
-19.68
-16.8649
-15.6342
-19.3649
-19.9328
-18.8797
-17.0624
-16.2148
-18.0424
-18.395
-17.6054
-16.4461
-15.8355
-16.4655
-16.6841
-16.082
-15.3575
-14.9135
-14.7744
-14.9184
-14.471
-14.0551
-13.7359
-13.0723
-13.1837
-12.8619
-12.6709
-12.4519
-11.4352
-11.5349
-11.3132
-11.2782
-11.1326
-9.91693
-10.0161
-9.87979
-9.94442
-9.84936
-8.5498
-8.64913
-8.57878
-8.7035
-8.64624
-7.34303
-7.44256
-7.42156
-7.577
-7.54714
-6.2913
-6.38958
-6.40479
-6.57274
-6.56178
-5.3833
-5.47826
-5.51645
-5.68533
-5.68759
-4.60247
-4.69266
-4.74386
-4.90707
-4.91794
-3.93229
-4.01709
-4.07387
-4.22631
-4.24315
-3.35663
-3.43544
-3.49348
-3.63335
-3.65424
-2.86075
-2.93375
-2.9906
-3.11785
-3.1413
-2.43315
-2.50067
-2.55497
-2.66996
-2.69439
-2.06392
-2.1263
-2.17719
-2.28044
-2.30495
-1.74469
-1.80234
-1.84953
-1.94192
-1.96614
-1.46831
-1.52163
-1.56494
-1.64736
-1.67107
-1.22891
-1.2783
-1.31794
-1.39142
-1.41448
-1.0215
-1.06729
-1.10337
-1.16879
-1.19106
-0.841962
-0.884482
-0.917362
-0.975668
-0.997072
-0.686727
-0.726234
-0.756066
-0.80801
-0.828437
-0.55285
-0.589612
-0.616774
-0.663136
-0.682539
-0.43771
-0.471955
-0.496448
-0.537849
-0.556166
-0.339101
-0.371151
-0.393087
-0.430286
-0.447526
-0.255012
-0.284987
-0.304549
-0.337964
-0.354022
-0.1837
-0.211776
-0.229425
-0.259564
-0.27447
-0.123655
-0.149968
-0.165808
-0.192965
-0.206679
-0.0736048
-0.0983071
-0.112678
-0.137276
-0.149914
-0.0324429
-0.0556245
-0.068527
-0.0907766
-0.102311
0.000876443
-0.0209431
-0.0326845
-0.0529171
-0.0634952
0.0272201
0.00654178
-0.00394139
-0.0222708
-0.031842
0.0473519
0.0277007
0.0182308
0.00151804
-0.00723492
0.0618214
0.0431884
0.0348255
0.01963
0.0117861
0.0713167
0.0537387
0.0462127
0.0323106
0.0251657
0.0762398
0.0596441
0.0530942
0.0404946
0.0342389
0.0771904
0.0616332
0.0558661
0.0444495
0.0388539
0.0743415
0.0597286
0.0549711
0.0449597
0.0403736
0.0680887
0.0546735
0.0510291
0.0421296
0.0382688
0.0586361
0.0464285
0.0443287
0.0376341
0.0351193
0.0459275
0.0352462
0.0357557
0.0298458
0.028425
0.0326452
0.0227263
0.0236155
0.0242271
0.0246343
0.0196422
0.00970764
0.00634195
0.00480353
0.00319042
-22.1124
-11.838
0.027841
11.1876
18.4301
-21.1045
-18.2706
-12.1434
-1.25251
6.41777
-21.0451
-20.4451
-18.0151
-9.72304
-3.86649
-21.0369
-21.4199
-19.5022
-14.0318
-10.2739
-20.8544
-21.6357
-19.7902
-16.2235
-13.8127
-20.3498
-21.139
-19.5726
-17.2882
-15.629
-19.3979
-20.0103
-18.8886
-17.4295
-16.2876
-18.0562
-18.453
-17.7012
-16.8001
-16.0177
-16.4638
-16.7262
-16.2091
-15.6754
-15.1346
-14.7608
-14.9557
-14.6082
-14.344
-13.9693
-13.0521
-13.2193
-13.0014
-12.9402
-12.6807
-11.4167
-11.5711
-11.4573
-11.5398
-11.3554
-9.90331
-10.0503
-10.0206
-10.2043
-10.0618
-8.54277
-8.6854
-8.71409
-8.95332
-8.84274
-7.34042
-7.47927
-7.5504
-7.81664
-7.7276
-6.29121
-6.42417
-6.52406
-6.80439
-6.72771
-5.38455
-5.50977
-5.62487
-5.90805
-5.84048
-4.60449
-4.72055
-4.84053
-5.1185
-5.0592
-3.9341
-4.04054
-4.15983
-4.42609
-4.37301
-3.35713
-3.45518
-3.56961
-3.82092
-3.77376
-2.8608
-2.95076
-3.05768
-3.29295
-3.25217
-2.43309
-2.51555
-2.61408
-2.8325
-2.79825
-2.06377
-2.13941
-2.22949
-2.43086
-2.40267
-1.7444
-1.81395
-1.89594
-2.08071
-2.05804
-1.46791
-1.53199
-1.60644
-1.77545
-1.75759
-1.2284
-1.28757
-1.35519
-1.5095
-1.49583
-1.0209
-1.07566
-1.13709
-1.27782
-1.26757
-0.841284
-0.892056
-0.947988
-1.07627
-1.06888
-0.686003
-0.733158
-0.784128
-0.901009
-0.895871
-0.552061
-0.595909
-0.642499
-0.749075
-0.745703
-0.436867
-0.477698
-0.520297
-0.617532
-0.615397
-0.338152
-0.376285
-0.415274
-0.504093
-0.50294
-0.253968
-0.289701
-0.325337
-0.406531
-0.405967
-0.182585
-0.216167
-0.248814
-0.323129
-0.323044
-0.122537
-0.154291
-0.184058
-0.252132
-0.252229
-0.0725488
-0.102548
-0.129753
-0.192227
-0.192523
-0.0315307
-0.0598535
-0.0846389
-0.142056
-0.14231
0.00164846
-0.0250629
-0.0477801
-0.100631
-0.100938
0.0277739
0.00250742
-0.0182131
-0.066915
-0.0670434
0.0477363
0.0238578
0.00482226
-0.0401084
-0.0402274
0.0620198
0.0394113
0.0220713
-0.0194331
-0.019293
0.0714343
0.0500933
0.0341501
-0.00420338
-0.0040211
0.076222
0.0560188
0.0415687
0.00612681
0.00666906
0.0771647
0.0581515
0.0449224
0.0122313
0.0129038
0.0741949
0.0562215
0.0444979
0.0145297
0.0157164
0.0681012
0.0514717
0.041018
0.0136178
0.0154201
0.0585095
0.043001
0.034608
0.0104403
0.013172
0.0462732
0.0329174
0.0260691
0.00458524
0.0101407
0.0319803
0.0193205
0.0155713
-0.000418577
0.00296073
0.0185774
0.0082367
0.00491274
-0.00845037
-0.0121752
-22.5517
-11.583
0.315281
11.5558
18.9375
-21.1365
-18.22
-11.8836
-0.994676
6.77873
-21.0315
-20.337
-17.7092
-9.53007
-3.63119
-21.0137
-21.2984
-19.2586
-13.916
-10.1192
-20.8458
-21.5646
-19.7025
-16.1777
-13.7085
-20.3505
-21.1351
-19.5743
-17.2429
-15.5592
-19.406
-20.0372
-18.9271
-17.3601
-16.2125
-18.0595
-18.4815
-17.7519
-16.71
-15.9466
-16.4596
-16.743
-16.2548
-15.5736
-15.0709
-14.752
-14.9669
-14.647
-14.2346
-13.905
-13.0401
-13.2264
-13.0371
-12.8324
-12.6163
-11.4046
-11.5751
-11.4917
-11.4443
-11.2942
-9.89301
-10.0527
-10.0501
-10.1168
-10.0022
-8.53468
-8.68695
-8.73893
-8.87863
-8.78525
-7.33398
-7.47908
-7.56919
-7.7578
-7.67306
-6.28613
-6.42263
-6.53584
-6.75657
-6.67652
-5.37997
-5.50678
-5.63096
-5.86805
-5.79179
-4.59982
-4.71654
-4.84314
-5.08326
-5.01116
-3.92883
-4.03564
-4.15907
-4.39463
-4.32707
-3.35186
-3.44947
-3.56621
-3.79175
-3.7301
-2.85559
-2.94451
-3.05241
-3.26441
-3.21005
-2.42796
-2.50888
-2.60735
-2.80411
-2.75743
-2.05871
-2.13236
-2.22163
-2.40253
-2.36303
-1.73939
-1.80654
-1.88721
-2.05251
-2.01949
-1.46294
-1.52429
-1.59705
-1.74745
-1.72004
-1.22348
-1.27959
-1.3453
-1.48188
-1.45928
-1.01604
-1.06748
-1.12689
-1.25078
-1.23201
-0.836494
-0.883788
-0.937641
-1.05008
-1.03438
-0.681295
-0.724872
-0.773756
-0.875892
-0.86244
-0.547443
-0.587659
-0.632154
-0.725074
-0.713427
-0.432355
-0.469498
-0.510044
-0.594626
-0.584247
-0.333713
-0.368095
-0.405162
-0.482301
-0.472992
-0.249562
-0.281574
-0.315405
-0.385796
-0.377153
-0.178199
-0.208178
-0.239111
-0.303465
-0.295442
-0.118101
-0.146466
-0.174608
-0.233465
-0.225738
-0.0680958
-0.0948992
-0.120572
-0.174558
-0.167233
-0.0271088
-0.0523862
-0.0757304
-0.125302
-0.118069
0.00599126
-0.0177948
-0.0391668
-0.0848085
-0.0778661
0.03202
0.00958518
-0.00988325
-0.051913
-0.04493
0.0518733
0.0307271
0.0128374
-0.0259554
-0.0192394
0.0660644
0.0460792
0.0298001
-0.00599484
0.000852095
0.075383
0.056538
0.0415576
0.00846959
0.0150391
0.0800919
0.0622744
0.0487249
0.0181983
0.0250225
0.0809479
0.0641949
0.0517726
0.0236199
0.0301961
0.0779078
0.0620992
0.0511423
0.0254175
0.0325074
0.0717543
0.0571827
0.0473709
0.023924
0.0310289
0.0620806
0.0485418
0.040751
0.0202669
0.0286154
0.0496285
0.0384197
0.0319103
0.0136552
0.0222463
0.0349382
0.0242307
0.0210297
0.00751639
0.016403
0.0218896
0.0130099
0.0103263
-0.00142886
0.00185544
-22.1119
-11.8375
0.0323936
11.1892
18.4286
-21.1044
-18.2697
-12.1408
-1.2523
6.41517
-21.0453
-20.4442
-18.0135
-9.72227
-3.86733
-21.0371
-21.4197
-19.5015
-14.0307
-10.2735
-20.8544
-21.6358
-19.7898
-16.2225
-13.8121
-20.3496
-21.1391
-19.5723
-17.2872
-15.6286
-19.3977
-20.0102
-18.8882
-17.4286
-16.2872
-18.056
-18.4528
-17.7008
-16.7995
-16.0174
-16.4636
-16.726
-16.2088
-15.675
-15.1343
-14.7607
-14.9555
-14.608
-14.3438
-13.9693
-13.052
-13.2191
-13.0013
-12.9402
-12.6807
-11.4166
-11.5711
-11.4573
-11.5398
-11.3555
-9.90328
-10.0502
-10.0206
-10.2042
-10.0619
-8.54277
-8.68538
-8.71411
-8.9533
-8.84281
-7.34043
-7.47925
-7.55041
-7.81661
-7.72767
-6.29123
-6.42417
-6.52406
-6.80435
-6.72777
-5.38458
-5.50977
-5.62485
-5.90799
-5.84053
-4.60452
-4.72055
-4.84052
-5.11844
-5.05922
-3.93413
-4.04053
-4.15981
-4.42602
-4.37301
-3.35716
-3.45517
-3.56958
-3.82085
-3.77376
-2.86082
-2.95076
-3.05765
-3.29287
-3.25217
-2.43312
-2.51554
-2.61405
-2.83243
-2.79824
-2.0638
-2.1394
-2.22946
-2.43079
-2.40267
-1.74443