/*--------------------------------*- C++ -*----------------------------------*\
| =========                 |                                                 |
| \\      /  F ield         | OpenFOAM: The Open Source CFD Toolbox           |
|  \\    /   O peration     | Version:                                        |
|   \\  /    A nd           | Website:  www.openfoam.com                      |
|    \\/     M anipulation  |                                                 |
\*---------------------------------------------------------------------------*/
FoamFile
{
    version     2.0;
    format      ascii;
    class       surfaceScalarField;
    location    "1.5";
    object      phi;
}
// * * * * * * * * * * * * * * * * * * * * * * * * * * * * * * * * * * * * * //

dimensions      [0 3 -1 0 0 0 0];
oriented        oriented;


internalField   nonuniform List<scalar> 
10050
(
0.000121503
-1.20132e-06
-1.20164e-06
0.00012232
-4.08264e-07
-4.08815e-07
0.000122671
-1.74124e-07
-1.76886e-07
0.000122912
-1.20611e-07
-1.20081e-07
0.000122922
-5.60369e-09
-4.22117e-09
0.000122818
5.19884e-08
5.20279e-08
0.000122677
7.06338e-08
7.06887e-08
0.000122518
7.94445e-08
7.95094e-08
0.000122345
8.64936e-08
8.64732e-08
0.000122162
9.12765e-08
9.13433e-08
0.000121973
9.45097e-08
9.44873e-08
0.000121781
9.62247e-08
9.62955e-08
0.000121585
9.77518e-08
9.77315e-08
0.000121388
9.84215e-08
9.84963e-08
0.00012119
9.92365e-08
9.92204e-08
0.000120992
9.90869e-08
9.91573e-08
0.000120794
9.89784e-08
9.89685e-08
0.000120595
9.93926e-08
9.94395e-08
0.000120396
9.93058e-08
9.93313e-08
0.000120198
9.9012e-08
9.90487e-08
0.000120001
9.86932e-08
9.87265e-08
0.000119804
9.81599e-08
9.8175e-08
0.000119609
9.75243e-08
9.75743e-08
0.000119415
9.68739e-08
9.6856e-08
0.000119223
9.59772e-08
9.60449e-08
0.000119033
9.53193e-08
9.52344e-08
0.000118844
9.421e-08
9.43589e-08
0.000118657
9.3694e-08
9.35555e-08
0.000118472
9.2238e-08
9.24291e-08
0.000118289
9.19109e-08
9.16651e-08
0.000118108
9.00891e-08
9.03463e-08
0.000117929
9.01523e-08
8.97162e-08
0.000117753
8.78578e-08
8.81365e-08
0.000117576
8.85852e-08
8.77683e-08
0.000117405
8.57176e-08
8.57828e-08
0.000117231
8.76113e-08
8.59018e-08
0.000117064
8.42654e-08
8.32502e-08
0.000116891
8.83529e-08
8.41886e-08
0.000116725
8.53233e-08
8.04888e-08
0.000116548
9.48006e-08
8.263e-08
0.000116374
9.62562e-08
7.71008e-08
0.000116174
1.18826e-07
8.15929e-08
0.000115966
1.34678e-07
7.37834e-08
0.000115689
1.94435e-07
8.22668e-08
0.000115371
2.44784e-07
7.28562e-08
0.000114891
3.89337e-07
9.13408e-08
0.000114348
4.64573e-07
7.81909e-08
0.000113729
4.78107e-07
1.40489e-07
0.000113384
7.26288e-09
3.37649e-07
-2.81439e-06
6.68408e-07
0.00011553
0.000124604
-1.58524e-07
-1.4553e-06
0.000124716
4.45691e-09
-5.2459e-07
0.000124788
8.28344e-08
-3.29208e-07
0.000124771
9.27795e-08
-1.95929e-07
0.00012474
1.16907e-07
-9.17833e-08
0.000124691
1.44249e-07
-4.35412e-08
0.000124633
1.57073e-07
-2.80323e-08
0.000124572
1.61413e-07
-2.15849e-08
0.000124512
1.64673e-07
-1.7842e-08
0.000124453
1.66011e-07
-1.5483e-08
0.000124396
1.66462e-07
-1.47259e-08
0.000124341
1.64158e-07
-1.30223e-08
0.000124288
1.62374e-07
-1.18879e-08
0.000124237
1.58547e-07
-9.42848e-09
0.000124188
1.55924e-07
-7.80337e-09
0.000124141
1.51422e-07
-4.75665e-09
0.000124094
1.49149e-07
-2.81333e-09
0.000124048
1.43781e-07
9.92222e-10
0.000124004
1.3985e-07
3.76609e-09
0.000123961
1.34315e-07
7.85617e-09
0.000123918
1.30805e-07
1.03172e-08
0.000123877
1.25579e-07
1.42121e-08
0.000123835
1.22725e-07
1.61389e-08
0.000123795
1.17829e-07
1.97651e-08
0.000123754
1.15569e-07
2.1078e-08
0.000123714
1.10902e-07
2.44357e-08
0.000123673
1.0916e-07
2.54704e-08
0.000123634
1.04774e-07
2.88356e-08
0.000123593
1.0369e-07
2.89555e-08
0.000123553
9.95639e-08
3.20115e-08
0.000123513
9.89053e-08
3.16915e-08
0.000123474
9.48593e-08
3.47334e-08
0.000123433
9.45935e-08
3.40575e-08
0.000123393
9.06784e-08
3.71732e-08
0.000123352
9.10158e-08
3.61342e-08
0.000123313
8.75003e-08
3.93774e-08
0.00012327
8.91706e-08
3.79914e-08
0.00012323
8.69874e-08
4.1364e-08
0.000123184
9.15642e-08
3.97095e-08
0.000123141
9.53054e-08
4.26654e-08
0.000123084
1.12933e-07
4.02471e-08
0.000123029
1.29985e-07
4.34383e-08
0.000122939
1.83399e-07
4.10791e-08
0.000122838
2.53525e-07
4.2686e-08
0.000122625
4.16712e-07
4.0904e-08
0.000122328
6.44304e-07
4.1665e-08
0.000121687
1.04648e-06
5.9129e-08
0.00012049
1.57916e-06
9.60377e-08
0.000118197
2.05656e-06
2.43607e-07
2.63685e-06
4.22725e-07
0.000112323
0.000123436
1.58609e-07
-1.22214e-06
0.000123614
-4.70125e-09
-1.68777e-07
0.000123786
-8.27508e-08
-6.82452e-09
0.000123956
-9.30028e-08
1.53921e-08
0.000124033
-1.16681e-07
1.5674e-07
0.000124106
-1.44459e-07
2.16125e-07
0.00012417
-1.56832e-07
2.50211e-07
0.000124223
-1.61649e-07
2.69423e-07
0.000124268
-1.64403e-07
2.84642e-07
0.000124302
-1.66273e-07
2.98152e-07
0.000124329
-1.66164e-07
3.05619e-07
0.000124349
-1.64454e-07
3.08239e-07
0.000124364
-1.62043e-07
3.09213e-07
0.000124375
-1.58877e-07
3.06972e-07
0.000124382
-1.5556e-07
3.04508e-07
0.000124385
-1.51794e-07
2.99548e-07
0.000124388
-1.4876e-07
2.95105e-07
0.000124388
-1.4413e-07
2.88118e-07
0.000124386
-1.3946e-07
2.81327e-07
0.000124382
-1.34717e-07
2.73226e-07
0.000124377
-1.30355e-07
2.66424e-07
0.00012437
-1.26044e-07
2.5853e-07
0.000124362
-1.22206e-07
2.52254e-07
0.000124354
-1.18366e-07
2.44791e-07
0.000124345
-1.14979e-07
2.39022e-07
0.000124336
-1.1153e-07
2.31911e-07
0.000124327
-1.08469e-07
2.26798e-07
0.000124316
-1.0543e-07
2.20312e-07
0.000124307
-1.02899e-07
2.16175e-07
0.000124296
-1.00228e-07
2.10248e-07
0.000124287
-9.79225e-08
2.06667e-07
0.000124276
-9.53952e-08
2.00863e-07
0.000124266
-9.31109e-08
1.97653e-07
0.000124255
-9.06478e-08
1.91931e-07
0.000124245
-8.80573e-08
1.89061e-07
0.000124235
-8.54348e-08
1.83461e-07
0.000124225
-8.17047e-08
1.80829e-07
0.000124214
-7.78933e-08
1.75588e-07
0.000124203
-7.06345e-08
1.73513e-07
0.000124194
-6.31365e-08
1.67744e-07
0.000124185
-4.3548e-08
1.64771e-07
0.000124173
-1.83746e-08
1.60524e-07
0.000124164
3.41009e-08
1.58629e-07
0.000124133
1.35231e-07
1.49399e-07
0.000124099
2.98564e-07
1.51418e-07
0.000123941
6.6433e-07
1.38668e-07
0.000123618
1.20754e-06
1.6148e-07
0.000122483
2.56872e-06
1.45454e-07
0.000119536
4.67294e-06
3.31207e-07
7.84452e-06
2.73347e-07
0.000114055
0.000124604
1.20142e-06
-1.45538e-06
0.000124716
4.08194e-07
-5.24647e-07
0.000124788
1.73989e-07
-3.29051e-07
0.000124771
1.20665e-07
-1.96077e-07
0.00012474
5.54405e-09
-9.16084e-08
0.000124691
-5.19037e-08
-4.37196e-08
0.000124633
-7.0722e-08
-2.78188e-08
0.000124572
-7.93381e-08
-2.18038e-08
0.000124512
-8.66031e-08
-1.75882e-08
0.000124453
-9.11431e-08
-1.57475e-08
0.000124396
-9.46476e-08
-1.44252e-08
0.000124341
-9.60615e-08
-1.3339e-08
0.000124288
-9.79241e-08
-1.15324e-08
0.000124237
-9.82202e-08
-9.80429e-09
0.000124189
-9.94488e-08
-7.38498e-09
0.000124141
-9.883e-08
-5.19418e-09
0.000124094
-9.93056e-08
-2.31004e-09
0.000124048
-9.90144e-08
4.80901e-10
0.000124004
-9.9704e-08
4.33207e-09
0.000123961
-9.85717e-08
7.25537e-09
0.000123918
-9.91657e-08
1.09746e-08
0.000123876
-9.76301e-08
1.35142e-08
0.000123835
-9.8099e-08
1.68985e-08
0.000123794
-9.62225e-08
1.89621e-08
0.000123754
-9.66787e-08
2.19605e-08
0.000123714
-9.4489e-08
2.33607e-08
0.000123674
-9.51162e-08
2.6629e-08
0.000123633
-9.26565e-08
2.76512e-08
0.000123593
-9.334e-08
3.0213e-08
0.000123553
-9.05654e-08
3.06913e-08
0.000123514
-9.14197e-08
3.30763e-08
0.000123473
-8.83208e-08
3.32593e-08
0.000123434
-8.93449e-08
3.55915e-08
0.000123394
-8.58387e-08
3.55114e-08
0.000123355
-8.69339e-08
3.78196e-08
0.000123314
-8.27906e-08
3.75031e-08
0.000123277
-8.36053e-08
3.98059e-08
0.000123237
-7.80305e-08
3.9326e-08
0.000123203
-7.74923e-08
4.16289e-08
0.000123166
-6.79209e-08
4.12928e-08
0.000123141
-6.25459e-08
4.3967e-08
0.000123118
-4.03587e-08
4.50769e-08
0.000123122
-1.95386e-08
4.96597e-08
0.000123149
5.90387e-08
4.90998e-08
0.000123217
1.7213e-07
5.87026e-08
0.000123393
4.24706e-07
6.34683e-08
0.000123552
9.76259e-07
7.25295e-08
0.000123897
2.09625e-06
1.26905e-07
0.000122571
5.76654e-06
2.32215e-07
1.12338e-05
3.62716e-07
0.000118819
0.000121504
-1.20172e-06
0.000122321
-4.08709e-07
0.000122671
-1.76894e-07
0.000122912
-1.20014e-07
0.000122922
-4.28862e-09
0.000122818
5.21152e-08
0.000122677
7.06105e-08
0.000122518
7.96109e-08
0.000122345
8.63771e-08
0.000122162
9.14588e-08
0.000121973
9.43752e-08
0.000121781
9.64278e-08
0.000121585
9.76e-08
0.000121388
9.86492e-08
0.00012119
9.90661e-08
0.000120992
9.93393e-08
0.000120793
9.87395e-08
0.000120595
9.97058e-08
0.000120396
9.90662e-08
0.000120198
9.93344e-08
0.000120001
9.84365e-08
0.000119804
9.84899e-08
0.000119609
9.72536e-08
0.000119416
9.7205e-08
0.000119223
9.56984e-08
0.000119033
9.56247e-08
0.000118844
9.396e-08
0.000118657
9.39646e-08
0.000118472
9.20201e-08
0.000118289
9.20846e-08
0.000118108
8.99308e-08
0.00011793
9.01193e-08
0.000117753
8.77518e-08
0.000117579
8.80896e-08
0.000117406
8.5521e-08
0.000117237
8.60141e-08
0.00011707
8.33691e-08
0.000116908
8.41089e-08
0.00011675
8.06737e-08
0.000116599
8.26694e-08
0.000116456
8.10792e-08
0.000116333
8.2075e-08
0.000116234
7.97121e-08
0.000116203
9.0328e-08
0.000116281
9.40111e-08
0.000116613
9.26809e-08
0.000117465
1.23866e-07
0.000119434
1.27587e-07
0.000124755
4.45596e-07
5.83906e-07
0.000135405
0.000124603
-1.45499e-06
-1.58851e-07
0.000124715
-5.23541e-07
2.98108e-09
0.000124792
-3.25902e-07
7.16092e-08
0.000124769
-1.97483e-07
1.0039e-07
0.00012474
-9.25372e-08
1.1785e-07
0.000124691
-4.38283e-08
1.44553e-07
0.000124633
-2.78443e-08
1.56841e-07
0.000124572
-2.19212e-08
1.61883e-07
0.000124512
-1.75221e-08
1.64222e-07
0.000124453
-1.58602e-08
1.66548e-07
0.000124396
-1.43324e-08
1.6593e-07
0.000124341
-1.34507e-08
1.64774e-07
0.000124288
-1.14233e-08
1.61758e-07
0.000124237
-9.9192e-09
1.59254e-07
0.000124189
-7.26651e-09
1.55218e-07
0.000124141
-5.31298e-09
1.52231e-07
0.000124094
-2.19545e-09
1.48352e-07
0.000124048
3.829e-10
1.44578e-07
0.000124004
4.45402e-09
1.39043e-07
0.000123961
7.1461e-09
1.35231e-07
0.000123918
1.10981e-08
1.29858e-07
0.000123876
1.3406e-08
1.26638e-07
0.000123835
1.70138e-08
1.21622e-07
0.000123794
1.88681e-08
1.1905e-07
0.000123754
2.20504e-08
1.143e-07
0.000123714
2.32849e-08
1.12319e-07
0.000123674
2.66908e-08
1.07684e-07
0.000123633
2.76473e-08
1.06341e-07
0.000123593
3.02023e-08
1.02005e-07
0.000123553
3.08132e-08
1.01301e-07
0.000123513
3.30051e-08
9.69434e-08
0.000123473
3.35635e-08
9.67275e-08
0.000123433
3.55207e-08
9.21688e-08
0.000123392
3.6184e-08
9.24957e-08
0.000123353
3.79934e-08
8.76021e-08
0.000123311
3.90666e-08
8.85978e-08
0.00012327
4.10388e-08
8.31557e-08
0.000123226
4.33102e-08
8.50042e-08
0.000123181
4.63862e-08
7.88899e-08
0.000123129
5.23073e-08
8.2025e-08
0.000123072
6.04687e-08
7.42264e-08
0.000122996
7.76364e-08
7.98519e-08
0.0001229
9.94219e-08
7.03385e-08
0.000122747
1.56601e-07
7.81777e-08
0.000122541
2.15116e-07
6.40375e-08
0.000122205
3.47329e-07
8.02331e-08
0.00012179
4.36183e-07
5.69911e-08
0.000121316
4.87841e-07
1.26107e-07
0.000121497
-1.92491e-07
3.49845e-07
-3.03799e-06
4.15461e-07
0.000124787
0.000126899
-3.28162e-07
-3.28146e-07
0.000126378
-2.64238e-07
-2.62878e-07
0.000125926
-1.2766e-07
-7.55431e-08
0.000125648
-3.71673e-08
-7.83379e-08
0.000125563
-5.0124e-08
-4.91846e-08
0.000125547
-3.56672e-08
-3.56044e-08
0.000125567
-3.79829e-08
-3.79276e-08
0.000125612
-4.44056e-08
-4.43291e-08
0.000125676
-4.98322e-08
-4.98753e-08
0.000125755
-5.51128e-08
-5.50465e-08
0.000125844
-5.89939e-08
-5.90445e-08
0.000125941
-6.155e-08
-6.14899e-08
0.000126043
-6.27578e-08
-6.28075e-08
0.00012615
-6.30062e-08
-6.2957e-08
0.000126259
-6.23846e-08
-6.24271e-08
0.000126371
-6.10818e-08
-6.10472e-08
0.000126485
-5.92317e-08
-5.9256e-08
0.0001266
-5.66986e-08
-5.6684e-08
0.000126715
-5.36364e-08
-5.36514e-08
0.000126831
-5.04549e-08
-5.04587e-08
0.000126947
-4.72959e-08
-4.72874e-08
0.000127063
-4.41159e-08
-4.41457e-08
0.000127178
-4.11693e-08
-4.1128e-08
0.000127293
-3.81148e-08
-3.81791e-08
0.000127407
-3.54983e-08
-3.54018e-08
0.00012752
-3.25751e-08
-3.27097e-08
0.000127633
-3.01388e-08
-3.00367e-08
0.000127744
-2.74049e-08
-2.75667e-08
0.000127854
-2.56365e-08
-2.54872e-08
0.000127964
-2.31492e-08
-2.34477e-08
0.000128072
-2.17589e-08
-2.15822e-08
0.000128179
-1.91421e-08
-1.96433e-08
0.000128284
-1.7978e-08
-1.78984e-08
0.000128389
-1.50726e-08
-1.60576e-08
0.000128491
-1.39842e-08
-1.44293e-08
0.000128593
-1.03755e-08
-1.26923e-08
0.000128692
-8.79431e-09
-1.1194e-08
0.00012879
-3.30251e-09
-9.55453e-09
0.000128883
4.91837e-10
-8.05475e-09
0.000128974
1.08876e-08
-6.60225e-09
0.000129057
2.31288e-08
-5.29004e-09
0.000129132
5.04726e-08
-4.18928e-09
0.000129187
8.74027e-08
-2.34204e-09
0.00012921
1.77859e-07
-1.21422e-09
0.00012915
3.14622e-07
7.76601e-10
0.000128983
5.52444e-07
3.37894e-09
0.000128533
9.36677e-07
8.93726e-09
0.000127624
1.45105e-06
4.17992e-08
0.000125773
1.83269e-06
6.93034e-08
2.43441e-06
3.03044e-07
0.000120421
0.000126169
3.28307e-07
-2.26689e-07
0.000125554
2.64084e-07
-8.18734e-08
0.000125358
1.27624e-07
-6.59784e-08
0.000125233
3.70404e-08
6.66067e-08
0.000125258
5.01855e-08
3.12695e-08
0.000125357
3.55578e-08
4.57908e-08
0.00012548
3.80523e-08
5.11932e-08
0.000125613
4.4294e-08
4.7984e-08
0.000125751
4.9913e-08
4.6694e-08
0.000125893
5.50025e-08
4.55557e-08
0.000126037
5.90785e-08
4.42337e-08
0.000126179
6.14408e-08
4.2537e-08
0.000126321
6.28412e-08
4.15507e-08
0.000126462
6.29039e-08
4.02518e-08
0.000126602
6.24609e-08
3.96901e-08
0.000126741
6.09916e-08
3.86897e-08
0.000126879
5.9292e-08
3.85148e-08
0.000127016
5.6636e-08
3.77955e-08
0.000127152
5.36749e-08
3.78113e-08
0.000127287
5.04149e-08
3.71096e-08
0.000127422
4.73026e-08
3.72763e-08
0.000127556
4.41116e-08
3.65989e-08
0.000127689
4.11364e-08
3.69163e-08
0.000127821
3.81569e-08
3.63464e-08
0.000127952
3.54213e-08
3.67344e-08
0.000128083
3.26922e-08
3.6003e-08
0.000128213
3.00275e-08
3.64889e-08
0.000128343
2.75762e-08
3.57632e-08
0.000128471
2.55037e-08
3.63246e-08
0.000128599
2.34813e-08
3.55235e-08
0.000128726
2.16725e-08
3.62094e-08
0.000128853
1.97782e-08
3.53361e-08
0.000128978
1.82115e-08
3.61301e-08
0.000129104
1.65309e-08
3.51651e-08
0.000129227
1.54287e-08
3.60561e-08
0.000129351
1.4299e-08
3.50075e-08
0.000129473
1.43469e-08
3.5985e-08
0.000129595
1.4835e-08
3.49408e-08
0.000129715
1.77493e-08
3.58995e-08
0.000129836
2.30339e-08
3.46879e-08
0.000129953
3.55482e-08
3.5301e-08
0.000130073
5.67929e-08
3.46034e-08
0.000130183
9.97571e-08
3.6064e-08
0.0001303
1.76464e-07
3.39309e-08
0.000130395
3.33611e-07
3.75355e-08
0.000130393
6.60576e-07
3.26346e-08
0.000130239
1.20073e-06
5.12752e-08
0.000129321
2.47641e-06
3.85725e-08
0.0001268
4.52446e-06
1.60082e-07
7.43285e-06
9.80381e-08
0.000121977
0.000126899
1.45514e-06
-3.28174e-07
0.000126378
5.23279e-07
-2.62903e-07
0.000125926
3.25993e-07
-7.54937e-08
0.000125648
1.97302e-07
-7.83947e-08
0.000125563
9.27066e-08
-4.91331e-08
0.000125547
4.36283e-08
-3.56686e-08
0.000125567
2.8039e-08
-3.78624e-08
0.000125612
2.16906e-08
-4.44036e-08
0.000125676
1.77549e-08
-4.97948e-08
0.000125755
1.55978e-08
-5.51366e-08
0.000125844
1.46033e-08
-5.89513e-08
0.000125941
1.31499e-08
-6.15937e-08
0.000126043
1.17336e-08
-6.26994e-08
0.00012615
9.5801e-09
-6.30759e-08
0.000126259
7.6183e-09
-6.23023e-08
0.000126371
4.94044e-09
-6.11829e-08
0.000126485
2.59568e-09
-5.91137e-08
0.0001266
-7.84596e-10
-5.68349e-08
0.000126715
-4.03476e-09
-5.34883e-08
0.000126831
-7.5891e-09
-5.0633e-08
0.000126947
-1.06428e-08
-4.71019e-08
0.000127063
-1.38834e-08
-4.43444e-08
0.000127178
-1.65251e-08
-4.09182e-08
0.000127293
-1.93748e-08
-3.84052e-08
0.000127407
-2.15332e-08
-3.51763e-08
0.00012752
-2.38859e-08
-3.29645e-08
0.000127633
-2.60719e-08
-2.97371e-08
0.000127744
-2.82316e-08
-2.78922e-08
0.000127855
-2.95961e-08
-2.50817e-08
0.000127964
-3.13222e-08
-2.38606e-08
0.000128072
-3.23387e-08
-2.1137e-08
0.000128179
-3.39148e-08
-2.00945e-08
0.000128285
-3.46336e-08
-1.74152e-08
0.00012839
-3.60565e-08
-1.65362e-08
0.000128493
-3.63524e-08
-1.38975e-08
0.000128596
-3.74336e-08
-1.31699e-08
0.000128697
-3.6885e-08
-1.0529e-08
0.000128798
-3.69963e-08
-9.87211e-09
0.0001289
-3.48509e-08
-7.32189e-09
0.000129002
-3.10447e-08
-7.11085e-09
0.000129109
-2.29273e-08
-4.35087e-09
0.00012922
-5.51682e-09
-3.59085e-09
0.000129354
1.43425e-08
1.09032e-09
0.000129503
7.64378e-08
-4.68793e-10
0.000129705
1.85106e-07
6.0974e-09
0.000130012
4.05348e-07
1.10692e-08
0.000130328
9.38676e-07
1.87479e-08
0.000130847
2.0293e-06
5.53023e-08
0.000129894
5.60139e-06
1.08321e-07
1.08739e-05
1.41491e-07
0.000126674
0.000124603
-1.58897e-07
0.000124715
2.88967e-09
0.000124792
7.17914e-08
0.000124769
1.00236e-07
0.00012474
1.18013e-07
0.000124691
1.44383e-07
0.000124633
1.57023e-07
0.000124572
1.61691e-07
0.000124512
1.64427e-07
0.000124453
1.66329e-07
0.000124396
1.66168e-07
0.000124341
1.64521e-07
0.000124288
1.62032e-07
0.000124237
1.58964e-07
0.000124188
1.55527e-07
0.000124141
1.51903e-07
0.000124093
1.48693e-07
0.000124048
1.4428e-07
0.000124004
1.39361e-07
0.000123961
1.34895e-07
0.000123918
1.30218e-07
0.000123877
1.2626e-07
0.000123835
1.22025e-07
0.000123794
1.18623e-07
0.000123754
1.1475e-07
0.000123714
1.11826e-07
0.000123674
1.08196e-07
0.000123633
1.05797e-07
0.000123593
1.02582e-07
0.000123553
1.00684e-07
0.000123513
9.76165e-08
0.000123474
9.59984e-08
0.000123434
9.29721e-08
0.000123394
9.16139e-08
0.000123355
8.85908e-08
0.000123316
8.75098e-08
0.000123277
8.48294e-08
0.00012324
8.40677e-08
0.000123206
8.00085e-08
0.000123178
7.998e-08
0.00012316
7.60035e-08
0.000123159
7.74108e-08
0.000123172
8.13753e-08
0.000123263
7.54678e-08
0.000123466
7.65227e-08
0.000123885
7.88774e-08
0.000124849
9.873e-08
0.00012691
9.55132e-08
0.000132704
2.52811e-07
2.42352e-07
0.00014392
0.000123433
-1.2214e-06
1.58793e-07
0.000123606
-1.6671e-07
-2.86195e-09
0.000123806
-5.58353e-08
-7.23559e-08
0.00012395
5.57902e-08
-9.99774e-08
0.000124033
1.53736e-07
-1.18207e-07
0.000124105
2.16028e-07
-1.44124e-07
0.000124169
2.49976e-07
-1.57291e-07
0.000124223
2.69554e-07
-1.61381e-07
0.000124268
2.84539e-07
-1.64761e-07
0.000124302
2.98355e-07
-1.65961e-07
0.000124329
3.05493e-07
-1.66567e-07
0.000124349
3.08477e-07
-1.64086e-07
0.000124364
3.0906e-07
-1.62504e-07
0.000124375
3.07251e-07
-1.58452e-07
0.000124382
3.04319e-07
-1.56078e-07
0.000124385
2.99874e-07
-1.51305e-07
0.000124388
2.94867e-07
-1.49331e-07
0.000124388
2.88484e-07
-1.43664e-07
0.000124386
2.8103e-07
-1.40008e-07
0.000124382
2.7365e-07
-1.34184e-07
0.000124377
2.66056e-07
-1.30976e-07
0.00012437
2.59022e-07
-1.25431e-07
0.000124362
2.51805e-07
-1.2291e-07
0.000124354
2.45365e-07
-1.17659e-07
0.000124345
2.38487e-07
-1.15774e-07
0.000124336
2.32571e-07
-1.10691e-07
0.000124327
2.26155e-07
-1.09395e-07
0.000124316
2.21106e-07
-1.04526e-07
0.000124307
2.15396e-07
-1.03943e-07
0.000124296
2.11216e-07
-9.92379e-08
0.000124287
2.05745e-07
-9.9136e-08
0.000124276
2.02086e-07
-9.43915e-08
0.000124266
1.96641e-07
-9.46529e-08
0.000124255
1.93586e-07
-8.98521e-08
0.000124244
1.88204e-07
-9.04137e-08
0.000124233
1.86021e-07
-8.56156e-08
0.000124221
1.81057e-07
-8.63153e-08
0.000124207
1.80478e-07
-8.16609e-08
0.000124192
1.76617e-07
-8.24784e-08
0.000124171
1.80773e-07
-7.80177e-08
0.000124143
1.81524e-07
-7.86588e-08
0.000124099
1.98096e-07
-7.46507e-08
0.000124033
2.11751e-07
-7.56216e-08
0.000123917
2.65875e-07
-7.13997e-08
0.00012374
3.11233e-07
-7.06515e-08
0.00012344
4.51219e-07
-7.07797e-08
0.000123019
5.54854e-07
-7.67944e-08
0.000122786
4.64538e-07
-1.05716e-07
0.000123108
1.9938e-07
-1.71323e-07
-3.36865e-06
-4.39791e-07
0.000127332
0.00012617
-2.26679e-07
3.28075e-07
0.000125564
-8.56118e-08
2.62477e-07
0.000125343
1.4904e-08
7.39743e-08
0.000125231
1.10829e-08
7.87296e-08
0.000125257
2.8824e-08
4.93651e-08
0.000125357
4.5623e-08
3.56218e-08
0.00012548
5.10019e-08
3.79481e-08
0.000125612
4.80865e-08
4.43453e-08
0.000125751
4.66161e-08
4.9887e-08
0.000125893
4.5698e-08
5.50449e-08
0.000126036
4.41226e-08
5.9066e-08
0.000126179
4.27158e-08
6.14731e-08
0.000126321
4.14029e-08
6.28449e-08
0.000126462
4.04789e-08
6.29209e-08
0.000126602
3.94985e-08
6.24867e-08
0.000126741
3.89711e-08
6.09877e-08
0.000126879
3.82664e-08
5.93459e-08
0.000127016
3.81353e-08
5.65996e-08
0.000127152
3.74868e-08
5.37614e-08
0.000127287
3.7523e-08
5.03407e-08
0.000127422
3.68687e-08
4.74302e-08
0.000127556
3.70964e-08
4.39925e-08
0.000127689
3.64133e-08
4.13106e-08
0.000127821
3.69372e-08
3.79811e-08
0.000127952
3.62194e-08
3.5628e-08
0.000128083
3.6624e-08
3.24395e-08
0.000128213
3.5842e-08
3.03063e-08
0.000128343
3.65266e-08
2.72721e-08
0.000128471
3.55565e-08
2.58355e-08
0.000128599
3.64398e-08
2.30616e-08
0.000128726
3.53714e-08
2.19957e-08
0.000128853
3.64827e-08
1.92022e-08
0.000128978
3.53529e-08
1.83754e-08
0.000129103
3.67713e-08
1.55531e-08
0.000129226
3.57651e-08
1.4967e-08
0.00012935
3.77999e-08
1.21349e-08
0.00012947
3.75793e-08
1.17598e-08
0.000129591
4.12369e-08
8.96764e-09
0.000129707
4.38161e-08
8.66651e-09
0.000129822
5.27007e-08
6.15359e-09
0.000129928
6.44363e-08
5.76289e-09
0.00013003
8.88068e-08
3.74898e-09
0.000130109
1.26958e-07
3.36691e-09
0.000130165
2.06822e-07
1.28352e-09
0.000130136
3.39488e-07
1.33443e-09
0.000130011
5.81338e-07
-1.06677e-09
0.000129622
9.59373e-07
-6.69854e-09
0.000128682
1.46562e-06
-1.92795e-08
0.000127232
1.82455e-06
-1.06197e-07
2.39298e-06
-1.09415e-07
0.000121883
0.000125388
2.26723e-07
2.26573e-07
0.000125054
8.56138e-08
8.08505e-08
0.000124939
-1.49656e-08
7.86224e-08
0.000125101
-1.11517e-08
-7.31002e-08
0.000125222
-2.88244e-08
-3.16287e-08
0.000125405
-4.56582e-08
-4.59041e-08
0.000125609
-5.10055e-08
-5.11393e-08
0.000125801
-4.81133e-08
-4.80467e-08
0.000125988
-4.66239e-08
-4.66035e-08
0.00012617
-4.57129e-08
-4.56349e-08
0.000126347
-4.41449e-08
-4.41283e-08
0.000126518
-4.27117e-08
-4.26333e-08
0.000126684
-4.14451e-08
-4.14294e-08
0.000126845
-4.04489e-08
-4.03683e-08
0.000127003
-3.95668e-08
-3.95522e-08
0.000127159
-3.89072e-08
-3.88277e-08
0.000127312
-3.83713e-08
-3.83582e-08
0.000127464
-3.80305e-08
-3.79548e-08
0.000127615
-3.76398e-08
-3.76318e-08
0.000127764
-3.73703e-08
-3.72957e-08
0.000127912
-3.70781e-08
-3.70764e-08
0.00012806
-3.68823e-08
-3.68079e-08
0.000128206
-3.66877e-08
-3.66955e-08
0.000128353
-3.66541e-08
-3.65772e-08
0.000128499
-3.65032e-08
-3.65275e-08
0.000128644
-3.63121e-08
-3.62262e-08
0.000128789
-3.61958e-08
-3.62537e-08
0.000128933
-3.61357e-08
-3.60069e-08
0.000129077
-3.59499e-08
-3.60708e-08
0.000129221
-3.59373e-08
-3.57853e-08
0.000129364
-3.56743e-08
-3.59415e-08
0.000129507
-3.57553e-08
-3.56163e-08
0.00012965
-3.52901e-08
-3.58457e-08
0.000129793
-3.53689e-08
-3.5465e-08
0.000129935
-3.44493e-08
-3.57579e-08
0.000130077
-3.42541e-08
-3.53304e-08
0.000130218
-3.20191e-08
-3.56578e-08
0.00013036
-3.05878e-08
-3.53076e-08
0.000130501
-2.53013e-08
-3.55399e-08
0.000130643
-1.94841e-08
-3.46627e-08
0.000130781
-3.83527e-09
-3.53071e-08
0.000130922
1.74782e-08
-3.47251e-08
0.000131055
6.51801e-08
-3.50873e-08
0.000131192
1.37652e-07
-3.3884e-08
0.000131312
2.93383e-07
-3.61447e-08
0.00013134
6.16866e-07
-3.15194e-08
0.000131243
1.15466e-06
-4.62381e-08
0.000130361
2.41575e-06
-2.96341e-08
0.000128019
4.45344e-06
-1.27405e-07
7.3593e-06
-7.04964e-08
0.000123221
0.00012617
1.22143e-06
3.28138e-07
0.000125564
1.66657e-07
2.62429e-07
0.000125343
5.58438e-08
7.39741e-08
0.000125231
-5.589e-08
7.86982e-08
0.000125257
-1.53665e-07
4.93698e-08
0.000125357
-2.1612e-07
3.55997e-08
0.00012548
-2.49891e-07
3.79429e-08
0.000125612
-2.69664e-07
4.43322e-08
0.000125751
-2.84416e-07
4.98682e-08
0.000125893
-2.98496e-07
5.50482e-08
0.000126036
-3.05354e-07
5.90331e-08
0.000126179
-3.08634e-07
6.14953e-08
0.000126321
-3.08904e-07
6.27912e-08
0.000126462
-3.07424e-07
6.29684e-08
0.000126602
-3.04143e-07
6.24046e-08
0.000126741
-3.00059e-07
6.10675e-08
0.000126879
-2.9467e-07
5.92251e-08
0.000127016
-2.88684e-07
5.67129e-08
0.000127152
-2.80831e-07
5.36106e-08
0.000127287
-2.73869e-07
5.05007e-08
0.000127422
-2.65842e-07
4.72291e-08
0.000127556
-2.59256e-07
4.42076e-08
0.000127689
-2.51573e-07
4.10473e-08
0.000127821
-2.45619e-07
3.8268e-08
0.000127952
-2.38229e-07
3.53044e-08
0.000128083
-2.32862e-07
3.28315e-08
0.000128213
-2.25843e-07
2.98611e-08
0.000128343
-2.21412e-07
2.77591e-08
0.000128471
-2.1501e-07
2.52346e-08
0.000128599
-2.11542e-07
2.3704e-08
0.000128727
-2.05257e-07
2.12682e-08
0.000128853
-2.02307e-07
1.99635e-08
0.000128979
-1.95894e-07
1.75171e-08
0.000129104
-1.93387e-07
1.64358e-08
0.000129228
-1.86659e-07
1.39641e-08
0.000129352
-1.84471e-07
1.30982e-08
0.000129475
-1.76497e-07
1.05252e-08
0.000129599
-1.74087e-07
9.84952e-09
0.000129723
-1.6383e-07
7.22307e-09
0.000129851
-1.60832e-07
6.93933e-09
0.000129981
-1.42351e-07
4.06919e-09
0.000130118
-1.27488e-07
3.66689e-09
0.000130271
-8.744e-08
1.47459e-09
0.000130446
-3.84116e-08
-2.39902e-11
0.000130677
7.37982e-08
-5.50717e-09
0.000131018
2.96105e-07
-8.57374e-09
0.000131378
8.29616e-07
-1.60186e-08
0.000131963
1.92744e-06
-4.1851e-08
0.000131105
5.5188e-06
-9.86962e-08
1.08914e-05
-1.15109e-07
0.000127829
0.000123433
1.58853e-07
0.000123606
-3.15741e-09
0.000123806
-7.21206e-08
0.00012395
-1.00267e-07
0.000124033
-1.17902e-07
0.000124105
-1.44456e-07
0.000124169
-1.56941e-07
0.000124223
-1.61762e-07
0.000124268
-1.64352e-07
0.000124302
-1.66405e-07
0.000124329
-1.66095e-07
0.000124349
-1.64598e-07
0.000124364
-1.6196e-07
0.000124375
-1.5904e-07
0.000124382
-1.55455e-07
0.000124385
-1.51975e-07
0.000124388
-1.48621e-07
0.000124388
-1.44338e-07
0.000124386
-1.39303e-07
0.000124382
-1.34948e-07
0.000124376
-1.30167e-07
0.00012437
-1.26305e-07
0.000124362
-1.21986e-07
0.000124354
-1.18658e-07
0.000124345
-1.14727e-07
0.000124336
-1.11849e-07
0.000124326
-1.08189e-07
0.000124317
-1.05797e-07
0.000124307
-1.02596e-07
0.000124297
-1.00662e-07
0.000124287
-9.76559e-08
0.000124276
-9.59494e-08
0.000124266
-9.30449e-08
0.000124256
-9.15261e-08
0.000124247
-8.87257e-08
0.000124237
-8.73658e-08
0.000124231
-8.50589e-08
0.000124224
-8.38944e-08
0.000124221
-8.01488e-08
0.00012422
-8.05874e-08
0.000124233
-7.86675e-08
0.000124259
-7.61877e-08
0.000124327
-7.3666e-08
0.000124441
-7.78251e-08
0.000124669
-7.74623e-08
0.00012512
-7.5952e-08
0.000126141
-9.2546e-08
0.000128252
-8.82352e-08
0.00013426
-2.36504e-07
-2.2162e-07
0.000145616
0.000124603
-1.45508e-06
1.20167e-06
0.000124715
-5.23575e-07
4.08958e-07
0.000124793
-3.27267e-07
1.77001e-07
0.000124769
-1.96628e-07
1.2008e-07
0.00012474
-9.27123e-08
4.06603e-09
0.000124691
-4.35709e-08
-5.19213e-08
0.000124633
-2.81196e-08
-7.08074e-08
0.000124572
-2.15979e-08
-7.93908e-08
0.000124512
-1.78735e-08
-8.66028e-08
0.000124453
-1.54684e-08
-9.12097e-08
0.000124396
-1.47611e-08
-9.46331e-08
0.000124341
-1.29781e-08
-9.61463e-08
0.000124288
-1.19364e-08
-9.78935e-08
0.000124237
-9.35957e-09
-9.83299e-08
0.000124188
-7.86741e-09
-9.9396e-08
0.000124141
-4.66372e-09
-9.89736e-08
0.000124094
-2.88728e-09
-9.92052e-08
0.000124048
1.10126e-09
-9.92266e-08
0.000124004
3.66932e-09
-9.95466e-08
0.000123961
7.99326e-09
-9.88187e-08
0.000123918
1.01926e-08
-9.89616e-08
0.000123876
1.43783e-08
-9.79256e-08
0.000123835
1.59789e-08
-9.78354e-08
0.000123794
1.99695e-08
-9.65801e-08
0.000123754
2.08621e-08
-9.63537e-08
0.000123714
2.47501e-08
-9.49471e-08
0.000123674
2.51503e-08
-9.46713e-08
0.000123633
2.92234e-08
-9.31985e-08
0.000123594
2.85446e-08
-9.28137e-08
0.000123553
3.2543e-08
-9.12475e-08
0.000123513
3.11959e-08
-9.07997e-08
0.000123473
3.54673e-08
-8.92226e-08
0.000123433
3.35145e-08
-8.86771e-08
0.000123392
3.83034e-08
-8.71713e-08
0.000123353
3.57505e-08
-8.64458e-08
0.000123311
4.14424e-08
-8.5169e-08
0.00012327
3.85126e-08
-8.40548e-08
0.000123226
4.59606e-08
-8.33073e-08
0.000123181
4.35652e-08
-8.14509e-08
0.000123129
5.534e-08
-8.14506e-08
0.000123072
5.72558e-08
-7.84382e-08
0.000122996
8.11007e-08
-8.01133e-08
0.0001229
9.59789e-08
-7.52982e-08
0.000122748
1.60787e-07
-8.02771e-08
0.00012254
2.11485e-07
-7.44821e-08
0.000122198
3.50477e-07
-7.94064e-08
0.000121735
4.6223e-07
-7.59921e-08
0.00012141
3.81974e-07
-1.62605e-07
0.000121554
2.72192e-08
-3.42192e-07
-3.23523e-06
-7.8098e-07
0.00012513
0.000126898
-3.2821e-07
1.45541e-06
0.000126377
-2.64233e-07
5.25027e-07
0.000125928
-1.3507e-07
3.306e-07
0.000125647
-3.2845e-08
1.9524e-07
0.000125563
-5.0281e-08
9.15519e-08
0.000125547
-3.55071e-08
4.36645e-08
0.000125567
-3.81185e-08
2.79213e-08
0.000125612
-4.42612e-08
2.16982e-08
0.000125676
-4.99761e-08
1.77193e-08
0.000125755
-5.49412e-08
1.56189e-08
0.000125844
-5.91679e-08
1.45818e-08
0.000125941
-6.13489e-08
1.31805e-08
0.000126043
-6.29618e-08
1.17205e-08
0.00012615
-6.27762e-08
9.61019e-09
0.000126259
-6.26173e-08
7.61301e-09
0.000126371
-6.08254e-08
4.96358e-09
0.000126485
-5.9489e-08
2.60099e-09
0.0001266
-5.6417e-08
-7.68929e-10
0.000126715
-5.39347e-08
-4.00922e-09
0.000126831
-5.01334e-08
-7.59079e-09
0.000126947
-4.7626e-08
-1.06006e-08
0.000127063
-4.37614e-08
-1.39062e-08
0.000127178
-4.15298e-08
-1.64641e-08
0.000127293
-3.77304e-08
-1.94185e-08
0.000127407
-3.58741e-08
-2.14466e-08
0.000127521
-3.2158e-08
-2.39503e-08
0.000127633
-3.05715e-08
-2.5973e-08
0.000127744
-2.69562e-08
-2.8329e-08
0.000127854
-2.61522e-08
-2.94667e-08
0.000127964
-2.26116e-08
-3.14827e-08
0.000128072
-2.22911e-08
-3.22568e-08
0.000128179
-1.85959e-08
-3.41416e-08
0.000128284
-1.8518e-08
-3.46859e-08
0.000128389
-1.45193e-08
-3.65122e-08
0.000128491
-1.45358e-08
-3.68374e-08
0.000128593
-9.80487e-09
-3.8637e-08
0.000128692
-9.37246e-09
-3.87764e-08
0.00012879
-2.79062e-09
-4.05706e-08
0.000128883
-3.18088e-11
-4.05175e-08
0.000128974
1.14686e-08
-4.15665e-08
0.000129056
2.25053e-08
-4.14847e-08
0.000129133
5.1055e-08
-4.24926e-08
0.000129186
8.72963e-08
-4.17408e-08
0.000129212
1.78159e-07
-4.16778e-08
0.000129151
3.14346e-07
-4.03861e-08
0.000128983
5.55955e-07
-3.87887e-08
0.000128545