/*--------------------------------*- C++ -*----------------------------------*\
| =========                 |                                                 |
| \\      /  F ield         | OpenFOAM: The Open Source CFD Toolbox           |
|  \\    /   O peration     | Version:                                        |
|   \\  /    A nd           | Website:  www.openfoam.com                      |
|    \\/     M anipulation  |                                                 |
\*---------------------------------------------------------------------------*/
FoamFile
{
    version     2.0;
    format      ascii;
    class       volVectorField;
    location    "1.5";
    object      U;
}
// * * * * * * * * * * * * * * * * * * * * * * * * * * * * * * * * * * * * * //

dimensions      [0 1 -1 0 0 0 0];


internalField   nonuniform List<vector> 
3875
(
(7.49988 -0.355696 -0.355705)
(7.5912 -0.293603 -0.293652)
(7.68312 -0.24499 -0.245036)
(7.69289 -0.2129 -0.212914)
(7.68509 -0.183933 -0.183862)
(7.67845 -0.15904 -0.159083)
(7.67236 -0.138686 -0.13863)
(7.66275 -0.121346 -0.121399)
(7.65262 -0.106447 -0.106387)
(7.64068 -0.0932747 -0.0933382)
(7.62963 -0.0819446 -0.0818759)
(7.61704 -0.0718536 -0.0719275)
(7.60558 -0.0631991 -0.0631194)
(7.59258 -0.0553874 -0.0554731)
(7.58097 -0.0487402 -0.0486474)
(7.56777 -0.0426538 -0.0427533)
(7.55619 -0.0375567 -0.0374487)
(7.54294 -0.0328453 -0.0329619)
(7.53144 -0.0290744 -0.0289498)
(7.51807 -0.0254109 -0.025545)
(7.50672 -0.0225661 -0.0224217)
(7.49334 -0.019634 -0.0197892)
(7.48223 -0.017488 -0.0173205)
(7.46889 -0.01509 -0.0152703)
(7.45808 -0.0134932 -0.0132983)
(7.44481 -0.0114866 -0.0116981)
(7.43434 -0.010335 -0.0101079)
(7.42115 -0.00860581 -0.00885202)
(7.41105 -0.0078292 -0.00756262)
(7.39793 -0.00629322 -0.00658425)
(7.38825 -0.00585157 -0.0055365)
(7.37521 -0.00442969 -0.00477846)
(7.36596 -0.00429958 -0.00392596)
(7.35298 -0.00291192 -0.00333784)
(7.34417 -0.0030871 -0.0026477)
(7.33123 -0.00164671 -0.00218374)
(7.32284 -0.00213403 -0.00163761)
(7.30984 -0.000531005 -0.00125339)
(7.30175 -0.00133736 -0.000845904)
(7.28845 0.000618219 -0.000501798)
(7.28019 -0.000429684 -0.000252109)
(7.26576 0.00223669 0.000122933)
(7.25602 0.0012746 0.00019946)
(7.23777 0.00553423 0.00066444)
(7.22328 0.00542423 0.000501132)
(7.19545 0.0129355 0.00156081)
(7.16796 0.0130756 0.000896296)
(7.13329 0.0261878 0.00329049)
(7.08808 -0.018552 0.00935194)
(7.0895 -0.00789181 0.0177349)
(7.77334 0.0819849 -0.365001)
(7.78614 0.11713 -0.303492)
(7.79993 0.127029 -0.243616)
(7.80195 0.119529 -0.200403)
(7.79827 0.112814 -0.165315)
(7.79444 0.105126 -0.137545)
(7.79136 0.0962439 -0.115757)
(7.78773 0.0871878 -0.0980162)
(7.78404 0.0790356 -0.0832584)
(7.78008 0.0715462 -0.0707537)
(7.77655 0.0650239 -0.0602021)
(7.7729 0.0589491 -0.0510999)
(7.76969 0.0537613 -0.0433596)
(7.76631 0.0488795 -0.036591)
(7.76335 0.0448032 -0.0308455)
(7.76019 0.0408669 -0.0257602)
(7.7574 0.0376716 -0.0214777)
(7.75433 0.0344985 -0.0176404)
(7.75168 0.0320144 -0.0144045)
(7.74879 0.0294539 -0.0114706)
(7.74628 0.0275498 -0.0090525)
(7.7435 0.0254452 -0.00681866)
(7.74107 0.0239848 -0.00503151)
(7.73834 0.0222191 -0.00332868)
(7.73596 0.0211058 -0.00202497)
(7.73328 0.0195915 -0.000728053)
(7.73093 0.0187558 0.00018966)
(7.72827 0.0174331 0.00115333)
(7.72591 0.0168282 0.00178166)
(7.72326 0.0156531 0.00252486)
(7.7209 0.0152394 0.00294661)
(7.71826 0.0141717 0.00353065)
(7.71589 0.0139175 0.00379991)
(7.71326 0.0129334 0.00426842)
(7.71086 0.0128219 0.00442343)
(7.70822 0.0119206 0.00480456)
(7.70576 0.0119622 0.00487622)
(7.70307 0.0111851 0.00518481)
(7.70048 0.0114468 0.00520707)
(7.69762 0.0110184 0.00543017)
(7.69458 0.0118345 0.00540319)
(7.69098 0.0123283 0.00554516)
(7.6868 0.014454 0.00554085)
(7.68 0.018499 0.0055417)
(7.67306 0.0239403 0.00558596)
(7.64991 0.0390836 0.00521579)
(7.63724 0.0518977 0.00617838)
(7.54898 0.0739496 0.00575178)
(7.48647 0.0973086 0.0137429)
(7.17333 -0.0502427 0.012398)
(7.67903 2.40426e-06 -0.347535)
(7.71349 5.89873e-06 -0.278691)
(7.73996 -1.26535e-05 -0.216436)
(7.74576 9.10821e-06 -0.172639)
(7.74996 -1.06653e-05 -0.136205)
(7.75414 1.18309e-05 -0.107409)
(7.75857 -1.28704e-05 -0.0848494)
(7.76242 1.36412e-05 -0.0668411)
(7.76555 -1.48011e-05 -0.0519485)
(7.76794 1.58931e-05 -0.039759)
(7.76986 -1.69784e-05 -0.0295867)
(7.77126 1.82454e-05 -0.0211468)
(7.77241 -1.94483e-05 -0.0139885)
(7.77315 2.09277e-05 -0.00805561)
(7.77373 -2.22619e-05 -0.00298334)
(7.774 2.3795e-05 0.001178)
(7.77422 -2.58354e-05 0.00476072)
(7.77426 2.74692e-05 0.00767691)
(7.77425 -2.85229e-05 0.0101183)
(7.774 3.06992e-05 0.0120525)
(7.77375 -3.1309e-05 0.0136826)
(7.77331 3.35127e-05 0.0149363)
(7.77291 -3.3906e-05 0.0159982)
(7.77236 3.59811e-05 0.0167723)
(7.77188 -3.62421e-05 0.0174312)
(7.77126 3.75518e-05 0.0178588)
(7.77073 -3.86671e-05 0.0182156)
(7.77008 4.21668e-05 0.0183838)
(7.76951 -3.9938e-05 0.0185363)
(7.76883 4.65042e-05 0.0185412)
(7.76825 -3.77397e-05 0.0185579)
(7.76755 5.37425e-05 0.018446)
(7.76698 -2.35705e-05 0.0183619)
(7.76625 7.17739e-05 0.0181691)
(7.76571 2.64844e-05 0.0180095)
(7.76494 0.000129633 0.017769)
(7.76444 0.000182111 0.0175438)
(7.76365 0.000334292 0.0172914)
(7.7632 0.000636344 0.017027)
(7.76209 0.00103557 0.0167135)
(7.76213 0.00246307 0.0163468)
(7.76102 0.00338741 0.016125)
(7.76051 0.00787853 0.0157867)
(7.7595 0.011091 0.0153661)
(7.7554 0.0262176 0.0151696)
(7.75437 0.0359753 0.0144804)
(7.72537 0.0821728 0.0148658)
(7.70883 0.118092 0.0137422)
(7.54375 0.232597 0.0192534)
(7.35431 0.340535 0.0178916)
(7.77334 -0.0819783 -0.365004)
(7.78617 -0.117174 -0.303506)
(7.79989 -0.126991 -0.243602)
(7.802 -0.119575 -0.200418)
(7.79823 -0.112763 -0.165299)
(7.79448 -0.105177 -0.137563)
(7.79131 -0.0961865 -0.115738)
(7.78778 -0.0872462 -0.0980368)
(7.78398 -0.0789708 -0.0832362)
(7.78014 -0.0716124 -0.0707776)
(7.77649 -0.0649507 -0.0601762)
(7.77296 -0.0590244 -0.0511276)
(7.76962 -0.0536788 -0.0433296)
(7.76638 -0.0489646 -0.0366228)
(7.76328 -0.0447104 -0.0308112)
(7.76026 -0.040963 -0.0257963)
(7.75732 -0.0375673 -0.0214383)
(7.75441 -0.0346077 -0.0176814)
(7.7516 -0.0318982 -0.0143604)
(7.74887 -0.0295757 -0.011517)
(7.74619 -0.0274206 -0.0090031)
(7.74359 -0.0255806 -0.00687057)
(7.74097 -0.0238415 -0.00497647)
(7.73844 -0.022369 -0.0033862)
(7.73586 -0.0209474 -0.00196407)
(7.73339 -0.0197567 -0.000790019)
(7.73082 -0.018581 0.000257893)
(7.72838 -0.0176133 0.00108285)
(7.72579 -0.0166347 0.00185671)
(7.72338 -0.0158471 0.00244833)
(7.72078 -0.0150224 0.00302679)
(7.7184 -0.0143725 0.00344867)
(7.71577 -0.0136622 0.00388394)
(7.71343 -0.0131157 0.00418192)
(7.71079 -0.0124824 0.00450883)
(7.7085 -0.0120019 0.00471609)
(7.70585 -0.0113931 0.0049569)
(7.70368 -0.0108976 0.00510164)
(7.7011 -0.0102018 0.00527031)
(7.6992 -0.00950065 0.00538097)
(7.69677 -0.00851229 0.00548955)
(7.69603 -0.00647696 0.0056389)
(7.69413 -0.0046904 0.00583087)
(7.69652 0.00344886 0.00592487)
(7.69739 0.00715135 0.00617426)
(7.70504 0.0380711 0.00646096)
(7.71753 0.0488764 0.00671469)
(7.71386 0.174843 0.0084956)
(7.72977 0.256057 0.0118887)
(7.50761 0.727943 0.0159412)
(7.49988 0.355699 -0.355707)
(7.59128 0.293646 -0.293639)
(7.68301 0.244932 -0.245047)
(7.69301 0.212954 -0.212898)
(7.68497 0.183871 -0.183877)
(7.67857 0.159104 -0.159066)
(7.67223 0.138615 -0.138648)
(7.66289 0.12142 -0.121379)
(7.65247 0.106365 -0.106407)
(7.64083 0.0933606 -0.0933153)
(7.62946 0.081851 -0.0818996)
(7.61721 0.0719527 -0.0719012)
(7.6054 0.0630916 -0.0631467)
(7.59277 0.0555017 -0.0554429)
(7.58078 0.0486166 -0.048679)
(7.56797 0.0427858 -0.0427184)
(7.55598 0.037415 -0.0374853)
(7.54316 0.0329991 -0.0329214)
(7.53121 0.0289102 -0.0289923)
(7.51831 0.0255882 -0.0254992)
(7.50646 0.0223759 -0.0224705)
(7.4936 0.0198393 -0.019737)
(7.48195 0.0172672 -0.017376)
(7.46918 0.0153288 -0.0152111)
(7.45777 0.0132358 -0.0133609)
(7.44513 0.0117665 -0.0116307)
(7.43401 0.0100343 -0.0101782)
(7.4215 0.00893318 -0.00877739)
(7.41069 0.00747585 -0.0076412)
(7.39832 0.00668111 -0.006501)
(7.38786 0.0054344 -0.0056238)
(7.37564 0.00489644 -0.00468695)
(7.36556 0.00380656 -0.00402115)
(7.3535 0.00348831 -0.00324034)
(7.34383 0.00251288 -0.00274729)
(7.33194 0.00239371 -0.00208428)
(7.32275 0.00150492 -0.00173365)
(7.31107 0.00159527 -0.00115463)
(7.30253 0.00078655 -0.000945174)
(7.29133 0.0011475 -0.000393808)
(7.28378 0.000552663 -0.000225323)
(7.27359 0.00130613 0.000221875)
(7.26917 0.00158223 0.000365434)
(7.26085 0.00278228 0.00105861)
(7.26852 0.00959237 0.00169982)
(7.26839 0.0106159 0.00176278)
(7.32841 0.04363 0.00343944)
(7.37223 0.0341206 0.00298457)
(7.61928 0.243196 0.014382)
(7.98211 0.152327 0.0181297)
(7.77332 -0.364995 0.0819687)
(7.78607 -0.303489 0.11714)
(7.80004 -0.243517 0.126589)
(7.80201 -0.20045 0.119715)
(7.79829 -0.165321 0.112896)
(7.79437 -0.137567 0.105169)
(7.79141 -0.115739 0.0962001)
(7.78767 -0.0980389 0.0872474)
(7.78409 -0.0832337 0.0789758)
(7.78002 -0.0707788 0.071615)
(7.77661 -0.0601732 0.0649552)
(7.77283 -0.0511287 0.0590284)
(7.76976 -0.0433269 0.0536824)
(7.76623 -0.0366239 0.0489705)
(7.76343 -0.030809 0.0447125)
(7.7601 -0.0257972 0.0409709)
(7.7575 -0.0214371 0.0375673)
(7.75423 -0.0176806 0.0346169)
(7.75179 -0.0143593 0.0318956)
(7.74867 -0.011516 0.0295873)
(7.74641 -0.00900278 0.0274141)
(7.74336 -0.00686884 0.0255957)
(7.74121 -0.00497743 0.0238303)
(7.73819 -0.00338306 0.0223889)
(7.73612 -0.00196703 0.0209302)
(7.73311 -0.000784725 0.0197828)
(7.73111 0.000251249 0.0185564)
(7.72807 0.00109279 0.0176481)
(7.72612 0.00184542 0.0166014)
(7.72303 0.00246374 0.0158943)
(7.72113 0.00301154 0.0149794)
(7.71801 0.00347237 0.0144398)
(7.71614 0.0038669 0.0136116)
(7.71297 0.00421968 0.0132225)
(7.71112 0.00449881 0.0124398)
(7.70788 0.004784 0.0122009)
(7.70601 0.00498294 0.0114182)
(7.70262 0.00524945 0.0113447)
(7.7006 0.00541941 0.0105182)
(7.69681 0.00576697 0.0106318)
(7.69424 0.00603401 0.00967419)
(7.68922 0.00671904 0.0100574)
(7.68497 0.00747441 0.0089388)
(7.67624 0.00924826 0.009678)
(7.66637 0.0113891 0.00822205)
(7.65014 0.0155173 0.00962148)
(7.62745 0.0178432 0.00752304)
(7.604 0.0301754 0.010942)
(7.5787 -0.0190619 0.0265729)
(7.62375 -0.0490996 0.0390154)
(8.03823 0.0586199 0.0586106)
(7.90787 0.101827 0.101848)
(7.86371 0.102251 0.101984)
(7.8557 0.092588 0.0927195)
(7.85006 0.0837699 0.0838396)
(7.84641 0.0742452 0.0742549)
(7.8464 0.0641387 0.0641349)
(7.84879 0.0545638 0.0545807)
(7.85251 0.0461813 0.0461676)
(7.85701 0.038824 0.0388428)
(7.86231 0.0325158 0.0324977)
(7.86812 0.0270727 0.0270943)
(7.87441 0.0224984 0.022476)
(7.88093 0.0185589 0.0185839)
(7.88773 0.0152875 0.0152605)
(7.89466 0.0124557 0.0124845)
(7.90174 0.0101385 0.0101068)
(7.90886 0.00813898 0.00817128)
(7.91607 0.00657847 0.00654123)
(7.92331 0.00518807 0.00522662)
(7.93056 0.00413121 0.00408812)
(7.93782 0.00314472 0.00318947)
(7.94504 0.00243488 0.00238577)
(7.95226 0.00173208 0.00178287)
(7.95939 0.00126874 0.00121396)
(7.96653 0.000764024 0.000819615)
(7.97352 0.000463107 0.0004011)
(7.98057 8.96163e-05 0.000152509)
(7.98743 -7.51476e-05 -0.000143939)
(7.99439 -0.000318437 -0.000251722)
(8.00107 -0.000375164 -0.000451247)
(8.00792 -0.000520923 -0.000456078)
(8.01442 -0.000509183 -0.000597196)
(8.02115 -0.000575184 -0.000526772)
(8.02743 -0.00051557 -0.000633873)
(8.03402 -0.00049574 -0.000506598)
(8.04006 -0.000383249 -0.000595026)
(8.04645 -0.000224518 -0.000425973)
(8.05215 9.78383e-06 -0.000497092)
(8.05823 0.000518392 -0.000317684)
(8.06331 0.00117198 -0.000398328)
(8.06864 0.00264196 -0.000204434)
(8.07221 0.0042385 -0.000255219)
(8.07491 0.0103575 -9.39116e-05)
(8.07578 0.0148024 -0.00010216)
(8.06242 0.0317767 2.3155e-05)
(8.05902 0.0425447 0.000701888)
(7.98653 0.0674953 0.00262643)
(7.94742 0.073909 0.0096471)
(7.65743 -0.0376406 0.0181858)
(7.96439 1.57405e-06 0.0670759)
(7.86402 -3.28187e-06 0.115006)
(7.82454 -3.20893e-06 0.11046)
(7.8233 4.46323e-07 0.0971523)
(7.82729 -2.10567e-06 0.0862683)
(7.83142 2.02682e-06 0.0779414)
(7.83793 -3.57975e-06 0.0691657)
(7.84623 3.61696e-06 0.0607209)
(7.85504 -5.12425e-06 0.053266)
(7.86383 5.75523e-06 0.0466735)
(7.87278 -7.29036e-06 0.0409695)
(7.88172 8.25602e-06 0.0360186)
(7.89067 -1.00471e-05 0.0318008)
(7.89948 1.13732e-05 0.0281128)
(7.9083 -1.34086e-05 0.024972)
(7.91696 1.50742e-05 0.0221945)
(7.92566 -1.75463e-05 0.0198417)
(7.9342 1.93983e-05 0.0177068)
(7.9428 -2.22586e-05 0.0158835)
(7.95122 2.44563e-05 0.0142213)
(7.95972 -2.75899e-05 0.0128514)
(7.96802 3.02125e-05 0.0115847)
(7.97644 -3.35987e-05 0.0105767)
(7.98464 3.65907e-05 0.00961308)
(7.99298 -4.00698e-05 0.00889032)
(8.00106 4.39614e-05 0.00817866)
(8.00932 -4.58111e-05 0.00768808)
(8.0173 5.05812e-05 0.00713671)
(8.02552 -5.09392e-05 0.00680016)
(8.03339 5.95117e-05 0.00635841)
(8.04154 -5.48615e-05 0.00613295)
(8.04927 7.30045e-05 0.00575638)
(8.05736 -5.05194e-05 0.00561128)
(8.06495 0.000101267 0.00527655)
(8.07298 -1.91281e-05 0.00519714)
(8.08043 0.000177205 0.00489063)
(8.08841 9.99703e-05 0.00486595)
(8.09571 0.000406242 0.00458752)
(8.10365 0.000495212 0.00461315)
(8.11081 0.00114132 0.00433838)
(8.11866 0.00181288 0.00436814)
(8.12557 0.00345442 0.0041431)
(8.13328 0.00610079 0.00428096)
(8.13946 0.0100647 0.00379753)
(8.14621 0.0228493 0.00414894)
(8.15113 0.0326219 0.003362)
(8.1369 0.0790739 0.00512544)
(8.12664 0.110177 0.00292316)
(7.98848 0.22642 0.0152873)
(7.81938 0.31141 0.00653645)
(8.03823 -0.0586045 0.0586043)
(7.90787 -0.101846 0.101849)
(7.86371 -0.102247 0.10199)
(7.85571 -0.0926057 0.0927165)
(7.85006 -0.0837566 0.0838453)
(7.84641 -0.0742643 0.07425)
(7.8464 -0.0641217 0.0641423)
(7.84878 -0.0545866 0.0545739)
(7.85251 -0.0461596 0.0461769)
(7.857 -0.0388509 0.0388337)
(7.86232 -0.0324889 0.0325091)
(7.86811 -0.0271046 0.0270825)
(7.87442 -0.0224659 0.0224901)
(7.88091 -0.0185964 0.0185689)
(7.88776 -0.0152487 0.0152779)
(7.89463 -0.0124992 0.012466)
(7.90177 -0.0100928 0.0101287)
(7.90883 -0.00818853 0.00814912)
(7.91612 -0.00652631 0.00656729)
(7.92326 -0.00524531 0.00519879)
(7.93062 -0.00407173 0.00411971)
(7.93775 -0.00320954 0.00315539)
(7.94511 -0.00236769 0.00242395)
(7.95218 -0.00180457 0.00174166)
(7.95948 -0.0011935 0.0012597)
(7.96643 -0.000843569 0.000771109)
(7.97363 -0.000379167 0.000456617)
(7.98045 -0.000176774 9.18699e-05)
(7.98756 0.00016897 -7.79434e-05)
(7.99424 0.000226911 -0.000325001)
(8.00124 0.000482133 -0.000371792)
(8.00776 0.000433278 -0.000542803)
(8.01464 0.000641876 -0.00050378)
(8.02098 0.000517122 -0.000627912)
(8.02774 0.000716854 -0.000525967)
(8.0339 0.000548906 -0.000621967)
(8.04056 0.000794379 -0.000470847)
(8.04658 0.000648667 -0.000548902)
(8.05324 0.00103323 -0.000362539)
(8.05926 0.00110113 -0.000430984)
(8.06614 0.00202593 -0.000199512)
(8.07262 0.00276159 -0.000189679)
(8.08025 0.00500125 0.000203914)
(8.08953 0.00981844 8.88927e-05)
(8.09832 0.0141313 0.000708116)
(8.11598 0.0408101 0.00101701)
(8.13408 0.0511399 0.00161952)
(8.14722 0.174273 0.0040259)
(8.16831 0.250677 0.0114636)
(7.99596 0.711899 0.0116439)
(7.77332 0.364998 0.081963)
(7.78611 0.303484 0.117137)
(7.79998 0.243519 0.126598)
(7.80209 0.200446 0.11971)
(7.79822 0.165326 0.112902)
(7.79444 0.137564 0.105163)
(7.79133 0.115744 0.0962072)
(7.78776 0.0980357 0.0872408)
(7.784 0.0832385 0.0789836)
(7.78011 0.070776 0.0716072)
(7.77651 0.0601773 0.0649642)
(7.77294 0.0511265 0.0590194)
(7.76965 0.0433298 0.0536927)
(7.76635 0.0366229 0.0489602)
(7.76331 0.0308102 0.0447241)
(7.76023 0.0257983 0.0409594)
(7.75736 0.0214363 0.0375802)
(7.75437 0.0176857 0.0346051)
(7.75163 0.0143547 0.0319093)
(7.74883 0.011524 0.0295738)
(7.74623 0.00899399 0.0274294)
(7.74355 0.00688093 0.0255805)
(7.74102 0.00496382 0.0238475)
(7.7384 0.00340034 0.0223714)
(7.73591 0.00194757 0.0209501)
(7.73334 0.000808732 0.019762)
(7.73087 -0.000278586 0.0185802)
(7.72833 -0.00105994 0.0176223)
(7.72585 -0.00188185 0.0166311)
(7.72333 -0.00241944 0.0158608)
(7.72083 -0.00305638 0.0150185)
(7.71835 -0.00341138 0.0143945)
(7.71583 -0.00391672 0.0136652)
(7.7134 -0.00412946 0.013158)
(7.71086 -0.00453788 0.0125185)
(7.70851 -0.00462827 0.0121022)
(7.70597 -0.00495386 0.0115564)
(7.70375 -0.00491948 0.011224)
(7.70141 -0.005165 0.010677)
(7.69946 -0.00490347 0.0104118)
(7.69794 -0.00504558 0.0100257)
(7.69745 -0.00388574 0.0097627)
(7.69818 -0.00311902 0.00964776)
(7.69843 -0.00172949 0.00960158)
(7.71541 0.00446006 0.00958521)
(7.71904 0.0052128 0.00942669)
(7.78869 0.0378435 0.0107719)
(7.83324 0.0272332 0.00970349)
(8.10308 0.235232 0.0246634)
(8.48607 0.136389 0.0255228)
(7.67897 -0.34752 -1.80971e-06)
(7.7132 -0.27861 3.84683e-06)
(7.74019 -0.216244 -2.32356e-05)
(7.74627 -0.172704 1.12267e-05)
(7.74982 -0.13628 -9.07526e-06)
(7.754 -0.107396 1.28976e-05)
(7.7586 -0.0848597 -1.2517e-05)
(7.76238 -0.0668264 1.45464e-05)
(7.76558 -0.0519574 -1.51366e-05)
(7.76791 -0.0397414 1.67977e-05)
(7.76988 -0.0295996 -1.78123e-05)
(7.77123 -0.0211259 1.95591e-05)
(7.77243 -0.0140054 -2.07121e-05)
(7.77312 -0.00803069 2.26182e-05)
(7.77375 -0.00300494 -2.38077e-05)
(7.77398 0.00120779 2.58795e-05)
(7.77424 0.00473365 -2.70826e-05)
(7.77424 0.00771148 2.98625e-05)
(7.77427 0.0100849 -2.95039e-05)
(7.77398 0.0120938 3.14805e-05)
(7.77377 0.0136419 -3.22578e-05)
(7.77329 0.0149853 3.40316e-05)
(7.77293 0.0159491 -3.51837e-05)
(7.77234 0.0168303 3.71847e-05)
(7.77189 0.0173722 -3.84532e-05)
(7.77124 0.0179283 4.19894e-05)
(7.77074 0.0181432 -4.12639e-05)
(7.77006 0.0184685 4.32575e-05)
(7.76951 0.0184475 -4.46933e-05)
(7.76882 0.0186451 4.63894e-05)
(7.76824 0.0184494 -4.78958e-05)
(7.76754 0.0185746 4.96838e-05)
(7.76694 0.0182327 -5.1076e-05)
(7.76624 0.0183305 5.24696e-05)
(7.76561 0.017866 -5.33866e-05)
(7.76489 0.0179788 5.40024e-05)
(7.7642 0.017418 -5.38204e-05)
(7.76335 0.0175975 5.36021e-05)
(7.76247 0.0169525 -5.60015e-05)
(7.76144 0.0173912 6.76361e-05)
(7.75973 0.0166672 -7.91615e-05)
(7.75773 0.0177965 0.000101297)
(7.75421 0.017168 -0.000101024)
(7.74883 0.0196988 0.000137057)
(7.74017 0.0203237 -0.00012988)
(7.7259 0.0248985 0.000135715)
(7.70825 0.0289671 -0.00095392)
(7.67987 0.0261938 0.000987597)
(7.67347 0.020505 0.00505723)
(7.75828 -0.138623 0.00185311)
(7.96438 0.0671008 -1.50293e-06)
(7.86399 0.114797 -5.26944e-06)
(7.82435 0.112062 -5.44505e-05)
(7.82329 0.096452 2.46623e-07)
(7.82723 0.0859874 1.18819e-05)
(7.83136 0.0779179 7.3642e-07)
(7.83793 0.0691504 2.13228e-06)
(7.84623 0.0607255 -7.05295e-07)
(7.85502 0.0532645 2.00992e-06)
(7.86384 0.0466803 -1.92151e-06)
(7.87276 0.0409672 2.9108e-06)
(7.88173 0.0360272 -3.02839e-06)
(7.89065 0.0317979 4.16511e-06)
(7.8995 0.0281234 -4.42198e-06)
(7.90826 0.0249684 5.71107e-06)
(7.91699 0.0222069 -6.11719e-06)
(7.92562 0.0198366 7.61516e-06)
(7.93425 0.0177207 -8.07846e-06)
(7.94274 0.0158761 9.82185e-06)
(7.95128 0.014237 -1.07268e-05)
(7.95965 0.0128414 1.243e-05)
(7.9681 0.0116025 -1.36511e-05)
(7.97635 0.0105638 1.55895e-05)
(7.98474 0.00963305 -1.71331e-05)
(7.99286 0.00887445 1.92549e-05)
(8.00118 0.00820133 -2.17306e-05)
(8.00917 0.00766937 2.24963e-05)
(8.01746 0.00716281 -2.4381e-05)
(8.02534 0.00677897 2.52554e-05)
(8.03359 0.00638919 -2.83189e-05)
(8.04131 0.00611102 3.04478e-05)
(8.04951 0.00579589 -3.2789e-05)
(8.05707 0.0055953 3.53635e-05)
(8.06523 0.00533704 -3.73763e-05)
(8.07261 0.00520876 3.97744e-05)
(8.08073 0.00501005 -4.10382e-05)
(8.0879 0.00497802 4.23068e-05)
(8.09593 0.00488283 -4.27035e-05)
(8.1028 0.00503179 4.29292e-05)
(8.11062 0.00522246 -3.79054e-05)
(8.1169 0.00589484 3.618e-05)
(8.12409 0.00692002 -3.17785e-05)
(8.12894 0.00883159 4.53568e-05)
(8.13369 0.0135736 -2.80586e-06)
(8.1362 0.0184447 6.71358e-05)
(8.12549 0.0354813 8.41668e-05)
(8.12519 0.046435 -1.9511e-05)
(8.05548 0.0707549 0.000762159)
(8.01735 0.0663833 -0.00108532)
(7.75797 -0.0251611 0.00549287)
(7.8734 1.01752e-06 -2.01751e-06)
(7.83516 1.791e-07 -1.5862e-05)
(7.80182 -5.03601e-07 3.52852e-06)
(7.80612 8.23845e-07 -7.43252e-06)
(7.82044 -1.84146e-06 -3.50639e-06)
(7.83316 1.80215e-06 -4.34439e-07)
(7.84416 -3.2524e-06 2.64416e-06)
(7.8563 3.12016e-06 -1.93295e-06)
(7.86845 -4.72887e-06 2.95665e-06)
(7.88004 5.10326e-06 -2.73219e-06)
(7.89127 -6.96924e-06 3.39417e-06)
(7.90209 7.63746e-06 -3.35852e-06)
(7.91263 -9.7841e-06 3.98513e-06)
(7.92282 1.08968e-05 -4.07038e-06)
(7.93284 -1.33383e-05 4.61314e-06)
(7.94259 1.49315e-05 -4.85467e-06)
(7.95228 -1.77904e-05 5.33489e-06)
(7.96176 1.96422e-05 -5.70165e-06)
(7.97127 -2.34198e-05 6.20986e-06)
(7.98057 2.55256e-05 -6.6511e-06)
(7.98995 -2.99086e-05 7.01859e-06)
(7.9991 3.26343e-05 -7.54361e-06)
(8.00838 -3.75419e-05 7.86663e-06)
(8.01743 4.089e-05 -8.45254e-06)
(8.02669 -4.62624e-05 8.82607e-06)
(8.03566 5.02803e-05 -9.3264e-06)
(8.04488 -5.48832e-05 9.49271e-06)
(8.05373 5.97225e-05 -9.68109e-06)
(8.06294 -6.35351e-05 9.87162e-06)
(8.07171 7.03393e-05 -9.99738e-06)
(8.08092 -6.79865e-05 1.00905e-05)
(8.08959 8.57336e-05 -1.0389e-05)
(8.09884 -6.4419e-05 1.04979e-05)
(8.1074 0.000116381 -1.09323e-05)
(8.11669 -3.38345e-05 1.09003e-05)
(8.12515 0.000195618 -1.12865e-05)
(8.13449 8.88164e-05 1.07563e-05)
(8.14282 0.000429844 -1.20755e-05)
(8.15223 0.000492457 1.25822e-05)
(8.16041 0.00115981 -2.92544e-06)
(8.16987 0.00183571 1.52218e-06)
(8.17781 0.00349343 -4.19495e-07)
(8.18721 0.00615047 3.33631e-05)
(8.1945 0.0102747 3.71269e-06)
(8.2028 0.021864 3.84079e-05)
(8.20906 0.0322155 4.69227e-05)
(8.19867 0.0781272 0.000167887)
(8.18992 0.108714 0.000323541)
(8.05798 0.225965 0.000969062)
(7.89741 0.310947 0.000755087)
(7.96438 -0.0670972 -3.12691e-07)
(7.86398 -0.114798 -6.34185e-06)
(7.82435 -0.112065 -5.33755e-05)
(7.82329 -0.0964624 -2.04009e-06)
(7.82723 -0.0859824 1.28493e-05)
(7.83135 -0.0779266 -1.20486e-06)
(7.83794 -0.0691433 2.96116e-06)
(7.84621 -0.0607362 -2.38665e-06)
(7.85504 -0.053255 2.51117e-06)
(7.86381 -0.0466934 -3.16752e-06)
(7.87279 -0.0409547 2.8471e-06)
(7.8817 -0.0360433 -3.55916e-06)
(7.89069 -0.0317818 3.30249e-06)
(7.89945 -0.0281431 -3.9633e-06)
(7.90832 -0.024948 3.79728e-06)
(7.91693 -0.0222309 -4.39577e-06)
(7.92569 -0.0198112 4.26026e-06)
(7.93416 -0.0177494 -4.78824e-06)
(7.94284 -0.0158453 4.65028e-06)
(7.95117 -0.0142724 -5.20045e-06)
(7.95977 -0.0128041 4.90308e-06)
(7.96796 -0.0116451 -5.45436e-06)
(7.97651 -0.0105186 5.07905e-06)
(7.98456 -0.00968443 -5.60033e-06)
(7.99306 -0.00881945 5.19871e-06)
(8.00096 -0.00826329 -5.60062e-06)
(8.00942 -0.00760184 5.35209e-06)
(8.01719 -0.00723708 -5.81469e-06)
(8.02564 -0.00669483 5.51806e-06)
(8.03327 -0.00647666 -5.78989e-06)
(8.04168 -0.00600313 5.02479e-06)
(8.04913 -0.00589183 -5.23534e-06)
(8.05752 -0.00544724 4.27157e-06)
(8.06481 -0.00542017 -4.36774e-06)
(8.07319 -0.00497172 3.1621e-06)
(8.08031 -0.00500846 -3.13884e-06)
(8.08873 -0.00448484 3.66339e-07)
(8.09571 -0.00452695 -2.87564e-07)
(8.10424 -0.00388901 -4.88888e-06)
(8.11124 -0.00376077 -3.19145e-06)
(8.12016 -0.00254892 -8.08676e-06)
(8.12761 -0.00166611 -2.10133e-06)
(8.13741 0.00105155 7.53542e-05)
(8.14716 0.00533061 -8.64664e-06)
(8.15832 0.0101947 1.53648e-05)
(8.17806 0.0361947 8.42767e-05)
(8.19773 0.0465594 8.23685e-05)
(8.21513 0.169513 0.00038134)
(8.24113 0.246206 0.000276755)
(8.06871 0.710162 0.000793145)
(7.67896 0.34752 -1.15854e-06)
(7.7132 0.278607 -8.18517e-06)
(7.74019 0.216243 -9.7139e-06)
(7.74628 0.172702 -2.83845e-06)
(7.74981 0.136282 5.62222e-06)
(7.754 0.107394 -2.86601e-06)
(7.75859 0.0848617 3.96495e-06)
(7.76239 0.0668253 -3.28696e-06)
(7.76557 0.0519589 3.65927e-06)
(7.76792 0.039741 -3.65312e-06)
(7.76987 0.0296004 3.71341e-06)
(7.77125 0.0211266 -3.84518e-06)
(7.77242 0.0140047 3.88091e-06)
(7.77314 0.00803344 -3.97762e-06)
(7.77374 0.00300177 4.0891e-06)
(7.774 -0.00120177 -4.11218e-06)
(7.77422 -0.00474043 4.29621e-06)
(7.77426 -0.00770166 -4.30926e-06)
(7.77425 -0.0100969 4.26658e-06)
(7.77401 -0.0120786 -4.32878e-06)
(7.77374 -0.0136604 4.17823e-06)
(7.77332 -0.0149632 -4.30451e-06)
(7.7729 -0.0159751 4.06647e-06)
(7.77237 -0.0168002 -4.28827e-06)
(7.77186 -0.0174068 3.96787e-06)
(7.77127 -0.0178888 -4.3813e-06)
(7.77072 -0.0181886 3.74461e-06)
(7.77009 -0.0184161 -4.02617e-06)
(7.7695 -0.0185051 3.65697e-06)
(7.76885 -0.0185755 -3.91638e-06)
(7.76823 -0.018523 3.66545e-06)
(7.76759 -0.0184804 -4.08261e-06)
(7.76696 -0.0183218 3.63924e-06)
(7.76633 -0.0181964 -3.3321e-06)
(7.76571 -0.0179575 1.08133e-06)
(7.76514 -0.0177719 4.54712e-07)
(7.76454 -0.0174336 -4.47565e-06)
(7.76425 -0.0172122 2.5254e-06)
(7.764 -0.0166441 8.01459e-06)
(7.76355 -0.0164039 -2.50099e-05)
(7.76444 -0.0156201 -9.52237e-05)
(7.76463 -0.0147932 7.62705e-05)
(7.76941 -0.0130913 0.000244717)
(7.77117 -0.0116213 -8.26131e-05)
(7.78985 -0.00506005 -5.47016e-05)
(7.79498 -0.00396211 0.000121785)
(7.86857 0.0289811 0.000218485)
(7.91431 0.0187452 0.000241018)
(8.19332 0.227726 0.000536987)
(8.58674 0.13283 0.000659432)
(7.77332 -0.364998 -0.0819694)
(7.78606 -0.303478 -0.117123)
(7.80004 -0.243577 -0.126619)
(7.80203 -0.200423 -0.119692)
(7.79829 -0.165331 -0.112924)
(7.79437 -0.137544 -0.10514)
(7.79141 -0.115766 -0.0962319)
(7.78768 -0.0980099 -0.087213)
(7.78409 -0.0832673 -0.0790135)
(7.78003 -0.0707425 -0.0715744)
(7.7766 -0.0602144 -0.0649997)
(7.77284 -0.0510839 -0.0589806)
(7.76975 -0.0433768 -0.0537346)
(7.76625 -0.0365697 -0.0489144)
(7.76342 -0.0308684 -0.0447731)
(7.76011 -0.025733 -0.0409057)
(7.75748 -0.0215066 -0.0376369)
(7.75425 -0.0176065 -0.0345419)
(7.75177 -0.0144409 -0.0319751)
(7.74869 -0.0114286 -0.0295023)
(7.74638 -0.0090976 -0.0275048)
(7.74339 -0.00676709 -0.0254988)
(7.74118 -0.00508723 -0.0239339)
(7.73823 -0.00326538 -0.022278)
(7.73609 -0.00209402 -0.0210491)
(7.73315 -0.000650579 -0.0196554)
(7.73107 0.000102466 -0.0186931)
(7.72812 0.00125255 -0.017502)
(7.72606 0.00167142 -0.0167586)
(7.72309 0.00264976 -0.0157262)
(7.72107 0.00281052 -0.01516)
(7.71807 0.00368815 -0.0142464)
(7.71607 0.00363451 -0.01382)
(7.71304 0.00446926 -0.0129986)
(7.71104 0.00423067 -0.0126818)
(7.70796 0.00507174 -0.0119402)
(7.70592 0.00467402 -0.0116995)
(7.70271 0.00558027 -0.0110412)
(7.7005 0.00506462 -0.0108444)
(7.69693 0.0061481 -0.0102741)
(7.69411 0.00562607 -0.0100605)
(7.68934 0.0071711 -0.00962689)
(7.68487 0.00699695 -0.00938653)
(7.67632 0.00978892 -0.00914122)
(7.6665 0.0109581 -0.00872762)
(7.64955 0.0157035 -0.00866466)
(7.62877 0.020164 -0.007999)
(7.59609 0.0177929 -0.0117342)
(7.58755 0.000215998 -0.0197125)
(7.63659 -0.133278 -0.0451837)
(8.03823 0.0586129 -0.0586095)
(7.90782 0.101825 -0.101851)
(7.86372 0.102261 -0.101987)
(7.85577 0.0925861 -0.0927211)
(7.85005 0.0837571 -0.083843)
(7.8464 0.0742568 -0.0742513)
(7.84639 0.0641298 -0.0641376)
(7.84879 0.0545751 -0.0545766)
(7.8525 0.0461706 -0.0461709)
(7.85701 0.0388369 -0.0388382)
(7.86231 0.032503 -0.0325016)
(7.86813 0.0270874 -0.0270891)
(7.8744 0.0224837 -0.0224804)
(7.88093 0.0185752 -0.0185782)
(7.88773 0.0152712 -0.0152654)
(7.89466 0.0124733 -0.0124782)
(7.90174 0.0101212 -0.0101121)
(7.90887 0.00815674 -0.00816467)
(7.91607 0.00655929 -0.00654809)
(7.92331 0.00520845 -0.00521873)
(7.93056 0.00411048 -0.00409647)
(7.93782 0.00316661 -0.00318011)
(7.94503 0.00241304 -0.0023957)
(7.95226 0.00175461 -0.00177199)
(7.95939 0.00124658 -0.00122573)
(7.96653 0.000785242 -0.000807619)
(7.97352 0.00044037 -0.00041555)
(7.98057 0.000113089 -0.000137388)
(7.98743 -9.77633e-05 0.000126777)
(7.99439 -0.000295059 0.000269601)
(8.00108 -0.000397362 0.000431759)
(8.00792 -0.000498739 0.000476318)
(8.01442 -0.000529906 0.00057561)
(8.02115 -0.000554801 0.000548916)
(8.02743 -0.000534737 0.000610497)
(8.03402 -0.000476864 0.000530578)
(8.04005 -0.00040154 0.000569675)
(8.04646 -0.000207925 0.000450907)
(8.05215 -4.62644e-06 0.000473507)
(8.05824 0.000538661 0.00035544)
(8.0633 0.00115398 0.000360736)
(8.06867 0.00265682 0.000230612)
(8.07222 0.00424978 0.000259969)
(8.07495 0.0103858 0.000123106)
(8.07593 0.0147789 0.000198366)
(8.0621 0.0321186 0.000125327)
(8.05994 0.0433962 -0.000369215)
(7.9849 0.0673029 -0.00180983)
(7.94465 0.0661661 -0.0100252)
(7.65936 -0.0289143 -0.00634587)
(7.96438 -9.96154e-10 -0.0670785)
(7.86403 6.39465e-07 -0.115045)
(7.82456 -4.60106e-06 -0.110161)
(7.82331 5.84394e-06 -0.0972314)
(7.82729 -6.37822e-06 -0.0863076)
(7.83142 8.02784e-06 -0.0779524)
(7.83793 -8.90063e-06 -0.0691635)
(7.84623 1.06831e-05 -0.0607246)
(7.85504 -1.18634e-05 -0.0532607)
(7.86384 1.416e-05 -0.0466774)
(7.87278 -1.56613e-05 -0.0409631)
(7.88172 1.82711e-05 -0.0360234)
(7.89067 -2.01801e-05 -0.0317935)
(7.89948 2.31841e-05 -0.0281187)
(7.9083 -2.54518e-05 -0.024964)
(7.91696 2.8799e-05 -0.0222017)
(7.92566 -3.16659e-05 -0.0198328)
(7.9342 3.51345e-05 -0.0177152)
(7.9428 -3.86011e-05 -0.0158737)
(7.95122 4.25807e-05 -0.0142312)
(7.95972 -4.63276e-05 -0.0128407)
(7.96802 5.07625e-05 -0.0115958)
(7.97644 -5.48882e-05 -0.010565)
(7.98464 5.97253e-05 -0.00962529)
(7.99298 -6.39594e-05 -0.00887788)
(8.00105 7.04767e-05 -0.00819192)
(8.00932 -7.14877e-05 -0.00767496)
(8.0173 7.80547e-05 -0.00715042)
(8.02553 -7.7703e-05 -0.00678656)
(8.03338 8.92545e-05 -0.00637279)
(8.04155 -8.54583e-05 -0.00611864)
(8.04926 0.00010554 -0.0057718)
(8.05736 -8.4248e-05 -0.005596)
(8.06494 0.000136353 -0.00529301)
(8.07299 -5.53488e-05 -0.00518098)
(8.08042 0.000214007 -0.00490851)
(8.08841 6.17048e-05 -0.00484639)
(8.0957 0.000443941 -0.00461334)
(8.10367 0.00045459 -0.00458959)
(8.11079 0.00116891 -0.00431574)
(8.11867 0.00177916 -0.00437675)
(8.12559 0.00346975 -0.00416024)
(8.1333 0.00615443 -0.00423955)
(8.13943 0.0100128 -0.00378038)
(8.14632 0.022897 -0.00405177)
(8.1512 0.0325842 -0.00329158)
(8.13715 0.0795146 -0.00471966)
(8.12682 0.109792 -0.00244518)
(7.98836 0.228687 -0.0130285)
(7.81936 0.312046 -0.00482935)
(8.03823 -0.0586027 -0.0586016)
(7.90782 -0.101833 -0.101859)
(7.86372 -0.102264 -0.101987)
(7.85577 -0.092592 -0.0927247)
(7.85005 -0.0837536 -0.0838429)
(7.8464 -0.0742624 -0.0742537)
(7.84639 -0.0641249 -0.0641383)
(7.84879 -0.0545825 -0.0545778)
(7.85251 -0.0461634 -0.0461725)
(7.857 -0.0388464 -0.0388382)