/*--------------------------------*- C++ -*----------------------------------*\
| =========                 |                                                 |
| \\      /  F ield         | OpenFOAM: The Open Source CFD Toolbox           |
|  \\    /   O peration     | Version:                                        |
|   \\  /    A nd           | Website:  www.openfoam.com                      |
|    \\/     M anipulation  |                                                 |
\*---------------------------------------------------------------------------*/
FoamFile
{
    version     2.0;
    format      ascii;
    class       volScalarField;
    location    "1.5";
    object      epsilon;
}
// * * * * * * * * * * * * * * * * * * * * * * * * * * * * * * * * * * * * * //

dimensions      [0 2 -3 0 0 0 0];


internalField   nonuniform List<scalar> 
4375
(
19.422
20.0935
20.7936
21.496
22.1972
22.885
23.5809
24.2619
24.9482
25.6159
26.2871
26.937
27.5891
28.2174
28.8468
29.4503
30.0541
30.6303
31.2062
31.753
32.2991
32.8151
33.3301
33.8143
34.2975
34.7496
35.2004
35.6206
36.0389
36.4276
36.8137
37.1717
37.526
37.8546
38.1777
38.4784
38.7708
39.0453
39.3076
39.5578
39.7902
40.0178
40.2195
40.4247
40.5928
40.7715
40.8973
41.0407
41.1017
41.2308
21.636
22.3817
23.0993
23.7837
24.4485
25.0869
25.7111
26.3135
26.9045
27.4749
28.0353
28.5759
29.1079
29.6204
30.1254
30.6112
31.0904
31.5506
32.0049
32.4396
32.8696
33.2797
33.686
34.0721
34.4556
34.8182
35.1798
35.5196
35.86
36.1776
36.4977
36.7935
37.0941
37.3688
37.6508
37.9049
38.1694
38.4033
38.6514
38.8655
39.0982
39.2928
39.5105
39.6861
39.8869
40.0426
40.2146
40.3433
40.4198
40.4903
20.8694
21.64
22.3874
23.1056
23.8034
24.4756
25.1316
25.7646
26.3841
26.9816
27.5677
28.1322
28.6869
29.2202
29.745
30.2483
30.7444
31.2188
31.6875
32.1338
32.5762
32.9954
33.4123
33.8053
34.1979
34.5656
34.9352
35.2784
35.6258
35.9455
36.2723
36.5695
36.877
37.1524
37.442
37.6962
37.9694
38.203
38.4613
38.6747
38.9196
39.1132
39.3464
39.5202
39.7434
39.8947
40.1084
40.2164
40.4009
40.3203
21.6352
22.3829
23.0984
23.785
24.4474
25.0883
25.7099
26.3151
26.9031
27.4766
28.0338
28.5778
29.1061
29.6225
30.1234
30.6136
31.0882
31.5532
32.0024
32.4426
32.8667
33.283
33.6827
34.0759
34.4518
34.8226
35.1753
35.5246
35.8549
36.1835
36.4916
36.8003
37.087
37.3767
37.6425
37.9142
38.1596
38.4145
38.64
38.8792
39.0854
39.3103
39.4982
39.71
39.8825
40.0855
40.2456
40.4541
40.5657
40.8338
19.4201
20.096
20.7916
21.4986
22.195
22.8878
23.5786
24.2649
24.9456
25.6191
26.2843
26.9404
27.5861
28.2211
28.8436
29.4543
30.0506
30.6345
31.2024
31.7575
32.295
32.8198
33.3256
33.8194
34.2927
34.755
35.1953
35.6263
36.0334
36.4336
36.8079
37.1781
37.52
37.8613
38.1714
38.4854
38.7646
39.0529
39.302
39.5668
39.7869
40.0309
40.2237
40.4519
40.6189
40.8443
40.9956
41.2587
41.4617
41.7851
21.6357
22.3822
23.0988
23.7843
24.448
25.0876
25.7104
26.3144
26.9036
27.476
28.0342
28.5773
29.1065
29.622
30.1237
30.6131
31.0884
31.5528
32.0025
32.4424
32.8666
33.2831
33.6823
34.0762
34.451
34.8234
35.1741
35.5259
35.8531
36.1853
36.4892
36.8029
37.0838
37.3801
37.6383
37.9186
38.1542
38.4199
38.6328
38.8854
39.0752
39.3159
39.4815
39.7104
39.8492
40.0618
40.1732
40.3947
40.3652
40.3788
2.56704
3.47008
4.13265
4.67113
5.13181
5.53302
5.88672
6.20075
6.48211
6.73502
6.96358
7.17051
7.3583
7.52915
7.68435
7.82611
7.95466
8.07264
8.1796
8.28033
8.37075
8.45698
8.53314
8.6071
8.67091
8.73447
8.78754
8.84275
8.88656
8.93455
8.9703
9.0124
9.04136
9.07876
9.10217
9.13584
9.15503
9.18583
9.20256
9.23136
9.24868
9.27714
9.30349
9.33775
9.3896
9.46724
9.5528
9.73253
9.76338
10.0245
2.23018
2.81445
3.28641
3.68552
4.054
4.3905
4.69763
4.97606
5.23124
5.46437
5.68036
5.8764
6.05851
6.22265
6.37551
6.51193
6.63933
6.75147
6.85638
6.94681
7.03221
7.10395
7.17273
7.22847
7.28311
7.32517
7.36774
7.39824
7.4306
7.45159
7.47525
7.48844
7.50439
7.5114
7.52035
7.52289
7.52513
7.52372
7.52253
7.51575
7.51275
7.50219
7.49774
7.48402
7.47872
7.46435
7.46684
7.4815
7.50843
8.16977
2.5669
3.47014
4.13265
4.67125
5.13166
5.53324
5.8866
6.20097
6.48199
6.73523
6.96349
7.17068
7.35825
7.52926
7.68438
7.82613
7.95482
8.0725
8.17993
8.28013
8.37124
8.45668
8.53382
8.60666
8.67181
8.73385
8.78864
8.84196
8.88787
8.93356
8.9718
9.01115
9.04298
9.07714
9.10368
9.13351
9.15568
9.18166
9.19999
9.22185
9.23589
9.25132
9.25705
9.26537
9.26354
9.25439
9.24094
9.16007
9.10321
8.76151
21.6349
22.3833
23.098
23.7855
24.447
25.0889
25.7094
26.3157
26.9025
27.4773
28.0331
28.5787
29.1054
29.6235
30.1226
30.6146
31.0872
31.5544
32.0013
32.444
32.8654
33.2846
33.6811
34.0777
34.4499
34.8247
35.1732
35.5271
35.8523
36.1863
36.4887
36.8036
37.0836
37.3805
37.6386
37.9186
38.1551
38.4196
38.635
38.8854
39.0801
39.3184
39.4934
39.7144
39.8519
40.0272
40.0912
39.9672
39.1702
37.8564
20.8692
21.6401
22.3874
23.106
23.8032
24.476
25.1313
25.7651
26.3836
26.9822
27.5672
28.1329
28.6863
29.221
29.7443
30.2491
30.7437
31.2197
31.6866
32.1348
32.5752
32.9964
33.4113
33.8063
34.197
34.5666
34.9343
35.2793
35.6251
35.9462
36.2718
36.57
36.8768
37.1525
37.4421
37.6959
37.9699
38.202
38.4621
38.6725
38.9204
39.1084
39.3457
39.5092
39.7359
39.8687
40.0909
40.1345
40.5781
39.8902
2.2303
2.81438
3.28686
3.6831
4.05326
4.39059
4.69721
4.9764
5.23071
5.46487
5.67969
5.87707
6.05767
6.22351
6.37448
6.51301
6.63806
6.7528
6.85486
6.94841
7.03041
7.10583
7.17064
7.23064
7.28074
7.32761
7.36513
7.40088
7.42786
7.4543
7.47255
7.49102
7.50205
7.51355
7.51891
7.52425
7.52558
7.52543
7.5236
7.52163
7.51809
7.51895
7.52241
7.52825
7.56642
7.60607
7.67148
7.7983
7.74889
7.79647
1.85196
1.97258
2.1732
2.3908
2.60932
2.82165
3.02511
3.21721
3.39742
3.56505
3.72114
3.86509
3.99836
4.12025
4.23245
4.33408
4.42705
4.51024
4.58579
4.65223
4.71205
4.76347
4.80922
4.84727
4.88057
4.90685
4.92913
4.94518
4.95779
4.96506
4.96916
4.96878
4.96463
4.95866
4.95025
4.93725
4.92349
4.90629
4.88761
4.86738
4.84408
4.82206
4.79467
4.77295
4.74245
4.72467
4.69672
4.68562
4.82223
4.49216
2.23008
2.81464
3.2862
3.68585
4.05367
4.39096
4.69716
4.97667
5.2306
5.46516
5.67954
5.87738
6.05747
6.22386
6.37422
6.5134
6.63775
6.75324
6.85448
6.94891
7.02998
7.10639
7.17014
7.23126
7.28018
7.32828
7.36453
7.40158
7.42721
7.455
7.47188
7.49166
7.50133
7.51398
7.51798
7.52403
7.52426
7.52195
7.5191
7.51092
7.50276
7.48614
7.46614
7.43538
7.38067
7.33412
7.24159
7.1726
6.87452
7.08279
20.8684
21.6414
22.3861
23.1073
23.8019
24.4776
25.1298
25.7668
26.382
26.9842
27.5653
28.1352
28.6842
29.2235
29.7418
30.252
30.7408
31.2229
31.6834
32.1386
32.5714
33.0007
33.4069
33.8113
34.1918
34.5724
34.9283
35.286
35.618
35.9542
36.2634
36.5793
36.8669
37.1636
37.4303
37.7091
37.956
38.218
38.4459
38.6925
38.9026
39.1358
39.3294
39.5535
39.7307
39.9263
39.9988
40.1459
38.903
39.4401
21.6358
22.3822
23.0988
23.7843
24.4479
25.0877
25.7104
26.3145
26.9036
27.476
28.0342
28.5773
29.1065
29.6221
30.1237
30.6132
31.0884
31.5529
32.0025
32.4425
32.8665
33.2832
33.6822
34.0764
34.4509
34.8236
35.174
35.5261
35.853
36.1855
36.4891
36.8032
37.0836
37.3805
37.638
37.919
38.1538
38.4204
38.6324
38.8859
39.0747
39.3165
39.4809
39.7114
39.8479
40.0634
40.1719
40.3935
40.3666
40.4049
2.56711
3.47011
4.13243
4.67119
5.13184
5.53303
5.88673
6.20077
6.48212
6.73504
6.96359
7.17053
7.35832
7.52918
7.68437
7.82615
7.95468
8.07269
8.17968
8.28043
8.37086
8.4571
8.53328
8.60725
8.67108
8.73464
8.78773
8.84294
8.88676
8.93475
8.97051
9.0126
9.04158
9.07895
9.1024
9.13603
9.15527
9.18602
9.20274
9.2317
9.24835
9.27885
9.29962
9.34543
9.37435
9.47751
9.53042
9.74866
9.65731
10.0728
2.23033
2.8143
3.28699
3.6829
4.05346
4.3903
4.69754
4.97599
5.23119
5.46432
5.68032
5.87637
6.05848
6.22262
6.37548
6.5119
6.6393
6.75145
6.85636
6.94679
7.03219
7.10393
7.17271
7.22846
7.28309
7.32516
7.36772
7.39823
7.43059
7.45158
7.47523
7.48844
7.50437
7.5114
7.52034
7.52288
7.52512
7.52375
7.52254
7.51594
7.51221
7.50256
7.49751
7.484
7.47894
7.46407
7.46667
7.48161
7.5092
8.17467
2.56694
3.47023
4.13253
4.67131
5.13167
5.5332
5.88659
6.20093
6.48199
6.73518
6.96349
7.17063
7.35827
7.5292
7.68441
7.82605
7.95487
8.0724
8.17993
8.27997
8.37122
8.45647
8.53379
8.6064
8.67177
8.73355
8.7886
8.84163
8.88783
8.9332
8.97177
9.01077
9.04297
9.07674
9.10368
9.13311
9.15568
9.18126
9.19998
9.22148
9.23585
9.251
9.25694
9.26513
9.26334
9.25425
9.24111
9.15968
9.10746
8.76488
21.635
22.3833
23.098
23.7854
24.447
25.0888
25.7094
26.3157
26.9026
27.4773
28.0331
28.5786
29.1054
29.6234
30.1225
30.6146
31.0872
31.5543
32.0012
32.4439
32.8653
33.2846
33.6811
34.0777
34.4499
34.8247
35.1731
35.527
35.8523
36.1863
36.4887
36.8036
37.0836
37.3805
37.6385
37.9186
38.1551
38.4196
38.6349
38.8854
39.0799
39.3185
39.4933
39.7145
39.8502
40.0366
40.057
39.9494
39.7245
37.6243
19.4221
20.0936
20.7936
21.496
22.1972
22.885
23.5809
24.2619
24.9482
25.6159
26.2872
26.937
27.5892
28.2174
28.8469
29.4504
30.0542
30.6303
31.2063
31.753
32.2992
32.8151
33.3302
33.8144
34.2976
34.7496
35.2005
35.6205
36.039
36.4275
36.8139
37.1717
37.5262
37.8546
38.1779
38.4783
38.7711
39.0452
39.3079
39.5576
39.7906
40.0175
40.2199
40.4245
40.5928
40.772
40.8967
41.0363
41.1314
41.2151
21.6361
22.3817
23.0992
23.7837
24.4485
25.0869
25.7111
26.3136
26.9045
27.4749
28.0354
28.576
29.108
29.6205
30.1255
30.6113
31.0905
31.5506
32.005
32.4397
32.8697
33.2797
33.6862
34.0721
34.4558
34.8183
35.1799
35.5197
35.8602
36.1777
36.4978
36.7936
37.0942
37.3688
37.651
37.9049
38.1696
38.4033
38.6516
38.8655
39.0984
39.2929
39.5108
39.686
39.8873
40.0424
40.2153
40.3418
40.4236
40.4893
20.8694
21.6399
22.3876
23.1057
23.8035
24.4756
25.1317
25.7646
26.3841
26.9816
27.5678
28.1323
28.687
29.2202
29.7451
30.2483
30.7445
31.2188
31.6876
32.1339
32.5763
32.9954
33.4124
33.8053
34.198
34.5657
34.9353
35.2784
35.6259
35.9456
36.2724
36.5696
36.8771
37.1525
37.4421
37.6963
37.9695
38.2031
38.4613
38.6748
38.9197
39.1134
39.3464
39.5205
39.7433
39.8949
40.1085
40.2162
40.4018
40.3208
21.6352
22.3828
23.0984
23.7849
24.4475
25.0882
25.7099
26.315
26.9032
27.4765
28.0339
28.5777
29.1063
29.6224
30.1236
30.6134
31.0884
31.553
32.0026
32.4424
32.8669
33.2828
33.683
34.0756
34.4521
34.8223
35.1757
35.5243
35.8553
36.183
36.4921
36.7998
37.0876
37.3761
37.6432
37.9135
38.1604
38.4136
38.641
38.8782
39.0866
39.3091
39.4995
39.7086
39.8841
40.084
40.2472
40.4531
40.5674
40.8269
19.4202
20.096
20.7916
21.4985
22.195
22.8877
23.5786
24.2648
24.9457
25.619
26.2844
26.9404
27.5862
28.221
28.8436
29.4542
30.0507
30.6344
31.2024
31.7574
32.2951
32.8198
33.3257
33.8194
34.2928
34.7549
35.1954
35.6262
36.0336
36.4335
36.8081
37.178
37.5202
37.8612
38.1717
38.4853
38.7648
39.0527
39.3022
39.5666
39.7871
40.0307
40.224
40.4518
40.6191
40.8441
40.9976
41.2506
41.4842
41.7501
41.319
40.6136
39.5305
44.6747
86.0013
39.9331
39.6313
37.5582
45.9524
86.0684
40.2823
39.123
38.0935
45.9284
77.6518
40.4621
40.3692
38.4199
51.7291
82.4171
42.5745
42.1784
41.9447
51.8201
94.8853
39.4424
32.6621
40.0818
150.928
298.118
11.0349
11.1065
34.8702
170.268
304.878
7.66716
15.463
28.2776
133.745
316.567
12.025
15.0703
57.1069
193.425
361.708
31.3076
29.1596
51.9551
237.554
432.361
36.3277
31.1026
38.5313
153.191
366.811
7.42644
12.239
31.0848
177.731
369.138
6.5061
10.3614
34.7314
149.78
400.442
7.23425
16.3425
57.9294
209.937
450.186
31.33
28.0015
56.1206
252.382
542.113
39.3772
32.621
40.0596
150.857
298.014
11.0558
11.0873
34.9993
170.261
304.735
7.65936
15.4649
28.2871
133.768
316.669
12.0149
15.1163
57.1816
193.464
362.006
30.4724
28.7709
51.7448
237.513
432.388
41.2781
40.6621
39.5409
44.6643
86.0356
39.9416
39.6313
37.5687
45.9879
86.086
40.2811
39.1351
38.108
45.9493
77.7142
40.4715
40.3734
38.4397
51.7714
82.4409
42.5658
42.1911
41.9629
51.8637
94.9875
6.36937
17.6326
26.1361
29.5827
25.1541
6.66348
18.9108
28.3932
31.8557
26.8997
6.7949
19.5075
29.2397
33.0744
27.8428
7.07191
20.7019
31.2011
35.228
29.4744
7.24729
21.4984
32.4859
36.695
30.5662
7.54562
22.7911
34.5809
39.0563
32.342
7.7699
23.8221
36.244
40.9158
33.6911
8.09687
25.2555
38.5633
43.5286
35.6277
8.37478
26.5445
40.6359
45.8275
37.2592
8.73987
28.1737
43.2621
48.7694
39.3944
9.07763
29.7546
45.7927
51.558
41.3289
9.49267
31.6433
48.8162
54.9149
43.6998
9.89867
33.5642
51.8693
58.2532
45.9553
10.3777
35.7864
55.3888
62.115
48.592
10.8633
38.1129
59.0443
66.0694
51.1781
11.4229
40.7557
63.1659
70.5237
54.0964
12.0037
43.5731
67.5158
75.1585
57.0051
12.6631
46.7395
72.3489
80.2786
60.1935
13.3571
50.1517
77.4901
85.6382
63.3832
14.1393
53.961
83.1385
91.4595
66.7847
14.9713
58.091
89.1575
97.5364
70.1594
15.9065
62.6742
95.6988
104.016
73.6497
16.916
67.6486
102.645
110.699
77.0355
18.0665
73.1195
110.102
117.651
80.3989
19.3843
79.0101
117.957
124.643
83.5256
20.851
85.4668
126.281
131.641
86.4481
22.4428
92.3944
134.966
138.343
88.961
24.1765
99.7879
144.092
144.583
91.0735
25.9806
107.307
153.665
149.939
92.6098
28.1108
115.166
163.079
154.323
93.4524
30.7394
123.169
172.197
156.752
93.7798
33.8019
131.122
180.663
157.721
93.8039
37.104
138.711
188.019
157.572
93.0032
40.6005
145.611
193.559
153.588
92.1388
44.1617
151.44
196.395
148.201
90.5575
47.8939
156.25
197.303
139.716
89.4855
51.1034
158.625
195.256
130.263
87.8519
54.2
159.173
188.318
119.193
86.8837
56.9051
157.102
176.948
107.229
85.4514
58.7894
153.369
163.583
95.1979
84.6312
60.6067
149.633
148.568
82.3171
83.2119
60.6018
149.001
131.5
71.0758
82.198
59.9417
144.224
110.114
61.2281
81.1055
58.7606
134.114
87.664
53.5945
80.1878
54.1491
117.995
64.7076
47.2394
78.8883
50.4824
97.0543
46.6004
43.0356
77.709
44.1179
76.4341
37.4183
40.2746
75.8762
39.9309
57.813
32.9029
39.507
74.2003
31.0599
27.6551
30.9712
39.3712
73.3636
30.4438
30.8551
36.2124
43.38
74.2672
13.7894
18.1003
19.8947
18.596
15.4683
14.6903
19.7126
21.8687
20.5551
16.9985
15.09
20.5332
22.8981
21.6067
17.8431
15.9307
22.0326
24.7472
23.4617
19.3206
16.4893
23.1403
26.1435
24.8599
20.4112
17.3859
24.7701
28.1663
26.9159
22.0755
18.1149
26.2014
29.9866
28.7465
23.507
19.1024
28.045
32.2944
31.1071
25.4239
20.0127
29.8295
34.581
33.4254
27.2504
21.133
31.9762
37.297
36.2165
29.5148
22.2447
34.1705
40.1284
39.1106
31.8106
23.5448
36.7176
43.389
42.4765
34.5357
24.8903
39.4072
46.8835
46.0745
37.4023
26.4241
42.4729
50.8508
50.1887
40.722
28.0512
45.7765
55.1722
54.6651
44.2906
29.8833
49.507
60.048
59.7417
48.3639
31.8572
53.5814
65.4143
65.3238
52.7943
34.0677
58.1606
71.4571
71.6281
57.8021
36.4744
63.213
78.1596
78.6064
63.2706
39.163
68.8896
85.7063
86.4693
69.3929
42.1116
75.1985
94.1188
95.1983
76.0738
45.4033
82.2884
103.594
105.013
83.4757
49.0314
90.2101
114.194
115.926
91.4859
53.0785
99.1177
126.135
128.152
100.219
57.5565
109.098
139.52
141.717
109.497
62.5354
120.321
154.587
156.832
119.342
68.0322
132.899
171.468
173.513
129.471
74.1164
147.006
190.404
191.946
139.764
80.8402
162.773
211.532
212.075
149.787
88.4721
180.393
235.081
233.952
159.237
97.1386
199.741
261.087
257.339
167.515
107.734
221.085
289.593
282.037
174.126
119.803
244.285
320.422
307.349
178.366
133.021
269.128
353.294
332.404
179.681
147.211
295.48
387.69
355.939
179.39
162.236
322.711
422.875
375.566
174.82
177.698
350.271
457.754
387.187
168.052
192.994
377.193
491.392
391.468
159.042
207.365
402.103
522.084
385.962
148.431
219.651
423.73
547.23
365.467
138.05
230.087
437.82
561.998
332.701
128.066
231.403
441.862
566.52
289.888
120.177
226.523
430.812
550.653
240.497
113.963
213.779
404.29
506.231
190.391
110.077
186.466
358.328
428.159
143.285
108.536
157.8
301.682
313.273
109.529
107.608
125.797
256.427
200.792
83.3544
111.656
100.411
217.94
99.1205
66.3984
125.05
62.8679
95.7791
52.9355
65.2026
152.544
38.7011
41.2453
38.3739
88.1811
203.348
15.9605
17.9652
18.6777
16.7681
14.2814
17.0334
19.5754
20.5313
18.5542
15.7097
17.5064
20.3952
21.5001
19.5026
16.4942
18.4983
21.8794
23.2229
21.1839
17.8725
19.1646
22.9953
24.556
22.4799
18.9074
20.2184
24.6014
26.4313
24.3348
20.4587
21.0867
26.0375
28.164
26.037
21.8303
22.2446
27.8534
30.3056
28.1746
23.6287
23.3257
29.6352
32.4722
30.3308
25.3921
24.638
31.7498
34.9991
32.875
27.5392
25.9536
33.9321
37.6725
35.5698
29.7744
27.4757
36.4413
40.7133
38.6615
32.3931
29.0629
39.1077
44.0062
42.0217
35.2135
30.8576
42.1255
47.7141
45.8318
38.4557
32.7717
45.3909
51.7841
50.033
42.0158
34.9135
49.0599
56.3532
54.777
46.0723
37.2307
53.0805
61.4144
60.0538
50.572
39.8135
57.5859
67.1008
66.0065
55.6671
42.6349
62.5663
73.4278
72.6634
61.3336
45.7755
68.1456
80.5361
80.1757
67.7194
49.2287
74.3517
88.5033
88.6051
74.8145
53.0695
81.3067
97.4821
98.1133
82.7519
57.3001
89.0859
107.573
108.782
91.5131
62
97.8239
118.959
120.812
101.197
67.1984
107.626
131.784
134.314
111.737
72.9633
118.642
146.259
149.487
123.152
79.3321
131.012
162.562
166.452
135.268
86.3792
144.903
180.915
185.399
147.959
94.1568
160.48
201.509
206.4
160.864
102.766
177.927
224.556
229.554
173.637
112.503
197.35
250.185
254.78
185.685
124.929
218.993
278.507
281.917
196.449
138.918
242.778
309.494
310.463
205.253
154.156
268.541
343.124
339.553
210.037
170.498
296.212
379.035
368.056
212.223
187.686
325.384
416.527
394.062
211.639
205.421
355.462
454.739
414.728
205.547
222.808
385.683
492.448
425.121
196.512
239.296
414.471
528.31
428.005
184.622
252.803
440.032
559.154
415.916
171.172
264.748
458.47
579.837
387.655
157.911
266.539
466.473
587.896
343.876
145.73
261.814
458.235
577.07
288.212
134.917
246.673
430.485
533.012
228.213
126.524
215.7
379.389
449.119
169.791
122.01
179.884
314.942
324.114
123.991
120.254
140.995
262.225
201.066
85.9007
120.799
109.525
216.893
99.2778
72.0651
137.173
68.5785
95.723
53.1174
66.7296
169.387
41.1524
41.3081
38.2571
88.7792
236.842
13.7892
18.0998
19.8937
18.5946
15.4671
14.6901
19.712
21.8676
20.5534
16.997
15.0897
20.5326
22.897
21.6051
17.8418
15.9305
22.0319
24.7458
23.4598
19.3189
16.4891
23.1396
26.1422
24.8582
20.4097
17.3857
24.7694
28.1649
26.9138
22.0736
18.1147
26.2006
29.9852
28.7445
23.5053
19.1022
28.0442
32.2928
31.1048
25.4218
20.0126
29.8287
34.5793
33.423
27.2483
21.1328
31.9754
37.2953
36.214
29.5124
22.2446
34.1696
40.1266
39.1079
31.8082
23.5447
36.7166
43.3871
42.4737
34.533
24.8902
39.4062
46.8816
46.0715
37.3995
26.4241
42.4719
50.8488
50.1855
40.719
28.0512
45.7755
55.17
54.6618
44.2873
29.8833
49.506
60.0458
59.7381
48.3604
31.8573
53.5804
65.4121
65.3201
52.7906
34.0679
58.1597
71.4548
71.6242
57.7981
36.4746
63.2121
78.1572
78.6023
63.2665
39.1634
68.8889
85.704
86.4651
69.3886
42.1121
75.1979
94.1166
95.194
76.0693
45.404
82.288
103.592
105.008
83.4712
49.0324
90.21
114.192
115.922
91.4815
53.0797
99.1179
126.133
128.148
100.215
57.5581
109.099
139.518
141.713
109.494
62.5374
120.322
154.587
156.827
119.34
68.0348
132.902
171.468
173.509
129.47
74.1196
147.01
190.405
191.942
139.766
80.8444
162.777
211.534
212.072
149.791
88.4773
180.398
235.085
233.948
159.246
97.1446
199.748
261.093
257.335
167.528
107.741
221.095
289.6
282.034
174.144
119.811
244.296
320.432
307.345
178.394
133.031
269.142
353.308
332.398
179.71
147.222
295.496
387.704
355.93
179.428
162.248
322.729
422.893
375.553
174.855
177.712
350.289
457.774
387.17
168.087
193.008
377.211
491.414
391.449
159.065
207.378
402.121
522.105
385.937
148.437
219.662
423.743
547.249
365.437
138.025
230.095
437.827
562.013
332.673
127.997
231.405
441.865
566.533
289.862
120.038
226.523
430.81
550.664
240.479
113.702
213.778
404.287
506.244
190.384
110.099
186.464
358.323
428.144
143.298
108.126
157.796
301.676
313.254
109.524
107.858
125.812
256.403
200.767
83.3478
111.552
100.402
217.899
99.1066
66.4041
125.111
62.8742
95.7676
52.9171
65.2014
152.527
38.6946
41.1769
38.3442
88.1848
203.317
6.3694
17.6324
26.1352
29.5811
25.1526
6.66356
18.9108
28.3923
31.854
26.8981
6.795
19.5074
29.2388
33.0729
27.8415
7.07204
20.7018
31.2
35.2259
29.4726
7.24743
21.4983
32.4849
36.6935
30.565
7.54578
22.791
34.5797
39.0542
32.3403
7.77008
23.8219
36.2429
40.9141
33.6899
8.09707
25.2554
38.5622
43.5266
35.6262
8.375
26.5444
40.6348
45.8257
37.2581
8.74012
28.1737
43.261
48.7675
39.3933
9.07789
29.7545
45.7917
51.5563
41.3282
9.49295
31.6433
48.8152
54.9133
43.6992
9.89897
33.5642
51.8683
58.2518
45.9551
10.378
35.7863
55.388
62.1137
48.5922
10.8636
38.1128
59.0435
66.0684
51.179
11.4233
40.7557
63.1653
70.523
54.0978
12.004
43.5732
67.5155
75.1582
57.0074
12.6635
46.7396
72.3489
80.2788
60.1968
13.3575
50.1519
77.4904
85.6391
63.3877
14.1397
53.9613
83.1393
91.4612
66.7908
14.9718
58.0915
89.159
97.5392
70.1672
15.907
62.6749
95.7009
104.02
73.6597
16.9165
67.6496
102.648
110.704
77.0481
18.0671
73.1208
110.106
117.658
80.4144
19.3848
79.0119
117.962
124.652
83.5447
20.8515
85.469
126.287
131.652
86.4713
22.4435
92.3973
134.974
138.357
88.9887
24.1774
99.7917
144.1
144.601
91.1062
25.9821
107.312
153.674
149.96
92.6476
28.1123
115.173
163.09
154.347
93.4986
30.741
123.176
172.209
156.779
93.8291
33.8037
131.131
180.674
157.749
93.8558
37.1058
138.72
188.021
157.603
93.0624
40.6043
145.624
193.617
153.618
92.1973
44.164
151.449
196.382
148.233
90.6207
47.8969
156.261
197.318
139.744
89.5434
51.1065
158.634
195.267
130.29
87.9103
54.2034
159.181
188.325
119.215
86.9334
56.9083
157.107
176.949
107.249
85.4973
58.7926
153.375
163.585
95.2077
84.6664
60.6093
149.641
148.572
82.3248
83.24
60.604
149.004
131.498
71.0794
82.217
59.9436
144.225
110.116
61.2313
81.1181
58.7626
134.111
87.6665
53.5951
80.1931
54.1509
117.987
64.7127
47.2404
78.8964
50.4832
97.0655
46.6035
43.0338
77.7161
44.118
76.4296
37.4238
40.2714
75.8844
39.9333
57.8187
32.9016
39.5013
74.2139
31.0682
27.6541
30.9715
39.365
73.3747
30.4078
30.8513
36.2082
43.3774
74.2721
29.1779
31.2203
31.9505
33.681
34.7461
36.5856
37.9123
39.9247
41.5343
43.7635
45.6867
48.1769
50.4475
53.243
55.8938
59.0336
62.0893
65.6059
69.0901
73.0035
76.9145
81.2139
85.5193
90.1598
94.794
99.7024
104.588
109.698
114.78
120.074
125.405
130.986
136.665
142.644
148.736
155.181
161.496
168.065
174.113
180.132
185.154
189.77
192.963
194.648
195.523
195.496
192.988
191.26
190.23
189.305
45.5236
48.6437
50.263
53.2939
55.2931
58.6777
61.2889
65.1159
68.452
72.8741
77.0689
82.2753
87.4997
93.7172
100.184
107.676
115.638
124.686
134.389
145.242
156.879
169.672
183.25
197.828
212.95
228.618
244.222
259.547
273.867
286.866
297.905
306.862
313.992
319.381
322.644
326.453
329.581
334.094
339.148
346.355
354.549
364.792
375.832
388.471
402.314
418.569
439.02
463.991
507.559
531.737
44.2704
47.3539
48.9505
51.9583
53.9594
57.3196
59.9605
63.7718
67.1739
71.6056
75.9151
81.1812
86.5908
92.9546
99.7163
107.5
115.934
125.501
135.952
147.679
160.493
174.693
190.077
206.81
224.588
243.356
262.594
281.946
300.626
318.031
333.292
345.926
355.535
362.132
366.214
367.413
368.637
369.013
371.13
374.646
381.089
389.565
401.274
415.388
433.59
455.68
485.619
519.69
578.505
611.448
45.5204
48.6402
50.2596
53.2899
55.2893
58.6733
61.2845
65.111
68.4469
72.8686
77.063
82.269
87.493
93.7101
100.176
107.668
115.629
124.677
134.38
145.232
156.87
169.662
183.241
197.82
212.945
228.617
244.226
259.558
273.888
286.898
297.949
306.918
314.059
319.456
322.732
326.536
329.669
334.172
339.222
346.413
354.595
364.82
375.848
388.472
402.32
418.578
439.04
463.97
507.584
531.651
29.1754
31.2176
31.9479
33.678
34.7435
36.5826
37.9095
39.9217
41.5314
43.7606
45.6838
48.1741
50.4448
53.2404
55.8914
59.0315
62.0875
65.6047
69.0896
73.004
76.9161
81.2169
85.5239
90.1664
94.8029
99.714
104.602
109.715
114.801
120.098
125.432
131.015
136.697
142.674
148.767
155.209
161.523
168.086
174.132
180.145
185.165
189.776
192.969
194.651
195.527
195.497
192.98
191.31
190.224
189.291
42.2248
40.5129
41.5023
50.735
87.4558
51.2202
36.8951
39.9334
50.1145
88.7863
64.3073
59.3592
41.6692
50.7899
92.1972
73.3709
130.233
48.3843
52.3792
98.1719
81.6002
166.22
55.3137
55.782
103.694
89.6728
182.451
69.0777
60.9679
107.901
98.2093
190.055
88.656
67.7367
111.188
101.76
208.128
111.641
75.7433
113.97
104.138
223.438
138.732
85.2657
115.967
104.737
236.534
167.713
95.7762
117.666
104.235
246.873
197.879
107.803
118.852
100.706
251.955
221.185
120.159
119.959
96.7887
252.506
243.415
133.715
120.707
90.6626
251.854
261.062
145.579
120.79
84.7421
250.327
274.039
157.833
120.686
78.8166
247.124
283.173
167.63
120.393
73.4547
242.023
287.005
176.4
120.01
68.2597
234.873
286.016
183.826
119.44
64.0475
226.726
283.272
190.329
118.973
60.5562
217.596
277.013
194.257
118.426
57.4629
207.898
268.905
197.35
117.776
54.4912
197.809
259.29
197.35
116.987
51.6906
187.675
248.816
196.572
116.137
48.9717
177.573
237.78
194.587
114.984
46.4426
167.776
226.568
191.083
113.697
44.009
158.238
215.256
186.506
112.049
41.7757
149.192
204.192
181.297
110.272
39.6329
140.504
193.319
175.415
108.123
37.6876
132.394
182.94
169.305
105.905
35.8187
124.657
172.884
162.814
103.337
34.137
117.523
163.453
156.4
100.795
32.5144
110.727
154.37
149.786
97.9338
31.068
104.528
145.98
143.474
95.2085
29.6595
98.6032
137.888
137.043
92.1844
28.42
93.2583
130.534
131.082
89.4105
27.1914
88.0625
123.43
124.985
86.3326
26.1224
83.4434
117.118
119.495
83.62
25.0387
78.901
110.877
113.812
80.5688
24.1225
74.971
105.463
108.882
77.9999
23.1616
70.995
99.9314
103.634
75.0274
22.3855
67.6849
95.3186
99.2979
72.6596
21.526
64.1709
90.365
94.4599
69.7933
20.8785
61.4171
86.4827
90.7217
67.6631
20.0993
58.2629
81.9866
86.2417
64.9126
19.5698
56.0165
78.7828
83.0888
63.0399
18.8531
53.1275
74.6298
78.9061
60.4044
18.4347
51.3606
72.0759
76.3058
58.7869
17.7617
48.6268
68.1179
72.4084
56.295
17.4672
47.4406
66.3868
70.1046
54.7644
16.7151
44.2503
61.6657
65.895
52.006
45.8937
38.1254
43.6815
178.422
327.785
100.717
112.482
59.9258
114.864
268.951
166.316
393.334
106.931
109.563
223.113
240.835
680.823
244.562
117.632
194.599
287.552
751.871
385.162
133.222
176.807
344.912
804.397
550.638
160.946
167.471
405.39
840.547
713.8
195.935
161.124
437.002
859.997
848.443
242.504
157.435
448.174
867.971
927.319
292.284
155.158
444.556
860.34
962.393
340.861
155.271
427.302
833.893
956.605
382.672
156.386
401.291
793.788
932.27
413.981
158.277
370.824
742.741
884.128
437.784
161.721
340.106
688.317
824.577
452.664
165.337
309.85
632.618
761.449
455.395
169.28
281.474
579.631
699.246
451.431
172.592
255.313
529.134
639.732
441.08
175.143
232.951
482.57
583.656
423.508
176.506
214.424
439.671
531.75
402.154
176.403
197.761
400.527
483.979
378.454
174.901
182.737
365.093
440.413
353.924
172.618
169.007
332.998
400.753
329.215
168.627
156.5
304.015
364.872
305.202
163.739
145.068
277.828
332.394
282.193
157.932
134.697
254.248
303.157
260.577
151.586
125.221
232.958
276.751
240.317
144.706
116.641
213.815
253.037
221.625
137.665
108.79
196.511
231.616
204.301
130.409
101.693
180.961
212.396
188.477
123.281
95.1688
166.858
194.998
173.877
116.157
89.2789
154.193
179.392
160.619
109.355
83.8315
142.646
165.213
148.395
102.681
78.926
132.292
152.499
137.343
96.443
74.353
122.782
140.883
127.122
90.38
70.2526
114.279
130.477
117.927
84.8265
66.3846
106.387
120.907
109.369
79.4317
62.9458
99.3764
112.368
101.721
74.5814
59.6421
92.7702
104.416
94.5259
69.8276
56.7541
86.9736
97.3807
88.1688
65.6533
53.9072
81.3898
90.7128
82.0754
61.4783
51.4914
76.595
84.9145
76.8048
57.9339
48.9966
71.8146
79.2523
71.5885
54.257
46.9943
67.865
74.4943
67.2499
51.2929
44.7613
63.7002
69.5959
62.7096
48.025
43.1368
60.4896
65.7483
59.196
45.596
41.0848
56.7679
61.3891
55.1434
42.6467
39.8225
54.2335
58.3805
52.387
40.7091
37.8708
50.8095
54.3655
48.6707
38.0262
37.029
48.8162
52.0487
46.4963
36.4056
34.8221
45.1148
47.7234
42.5169
33.5689
44.9368
35.7835
42.2833
186.088
388.54
104.462
110.196
60.5824
120.585
305.311
179.544
372.673
106.277
117.489
249.777
269.57
680.645
248.877
127.51
217.105
324.557
772.629
407.707
149.413
196.863
388.476
838.998
589.4
188.913
189.016
455.066
888.41
768.553
237.296
183.346
495.567
908.674
910.503
300.971
182.403
509.432
918.785
992.075
367.667
183.335
508.358
907.859
1018.63
429.875
185.927
488.397
876.112
1005.49
479.788
189.955
458.266
828.226
968.039
516.749
195.773
424.317
770.389
908.563
539.301
201.714
389.384
709.463
840.561
543.698
208.109
354.75
648.383
770.727
538.037
213.044
321.998
590.579
702.983
523.347
216.915
291.665
536.43
638.852
499.431
218.351
266.227
486.965
579.422
470.68
217.623
245.373
442.105
525.029
439.621
215.786
226.546
401.61
475.623
407.761
211.336
209.414
365.187
431.026
376.342
205.404
193.788
332.462
390.869
346.107
198.046
179.571
303.09
354.822
317.597
189.739
166.606
276.72
322.473
291.005
180.671
154.827
253.063
293.501
266.495
171.252
144.079
231.801
267.513
243.987
161.589
134.321
212.715
244.243
223.482
152.018
125.398
195.519
223.34
204.785
142.55
117.303
180.068
204.606
187.851
133.453
109.872
166.093
187.732
172.448
124.654
103.132
153.527
172.589
158.538
116.375
96.9047
142.1
158.897
145.871
108.474
91.263
131.824
146.595
134.45
101.155
86.0179
122.412
135.412
124.023
94.215
81.2852
113.965
125.366
114.638
87.8717
76.8384
106.151
116.155
106.02
81.8594
72.8563
99.1736
107.894
98.2874
76.4406
69.0527
92.6316
100.267
91.1244
71.2635
65.6981
86.8505
93.4612
84.7454
66.6824
62.4079
81.3188
87.0819
78.7443
62.2243
59.5888
76.5221
81.4626
73.4848
58.3905
56.6979
71.784
76.058
68.3978
54.529
54.3531
67.8173
71.4327
64.0844
51.3614
51.7588
63.6878
66.7676
59.6936
47.9743
49.852
60.4488
63.0127
56.2106
45.4081
47.4597
56.7551
58.865
52.3124
42.3783
45.978
54.1891
55.9219
49.596
40.3593
43.6897
50.7768
52.0855
46.0122
37.6082
42.7106
48.7712
49.8467
43.9299
35.9661
40.1023
45.0546
45.6858
40.0798
33.0635
45.9257
38.0721
43.695
178.451
327.849
100.701
112.537
59.9916
114.949
269.026
166.329
393.289
106.928
109.619
223.187
240.833
680.821
244.579
117.691
194.674
287.558
751.886
385.187
133.264
176.854
344.917
804.417
550.663
160.997
167.549
405.401
840.576
713.816
195.986
161.138
437.016
860.025
848.449
242.57
157.556
448.192
867.996
927.325
292.345
155.062
444.574
860.363
962.41
340.909
155.569
427.317
833.907
956.593
382.735
156.401
401.313
793.81
932.297
414.042
158.458
370.841
742.759
884.122
437.835
161.842
340.12
688.329
824.576
452.704
165.419