/*--------------------------------*- C++ -*----------------------------------*\
| =========                 |                                                 |
| \\      /  F ield         | OpenFOAM: The Open Source CFD Toolbox           |
|  \\    /   O peration     | Version:                                        |
|   \\  /    A nd           | Website:  www.openfoam.com                      |
|    \\/     M anipulation  |                                                 |
\*---------------------------------------------------------------------------*/
FoamFile
{
    version     2.0;
    format      ascii;
    class       volScalarField;
    location    "1.5";
    object      k;
}
// * * * * * * * * * * * * * * * * * * * * * * * * * * * * * * * * * * * * * //

dimensions      [0 2 -2 0 0 0 0];


internalField   nonuniform List<scalar> 
4375
(
0.211011
0.215841
0.220824
0.225769
0.230652
0.235392
0.240141
0.244742
0.249336
0.253765
0.258179
0.262417
0.266635
0.270668
0.274678
0.278496
0.28229
0.285886
0.289458
0.29283
0.296178
0.299324
0.302448
0.30537
0.308272
0.310975
0.313659
0.31615
0.318621
0.320907
0.323171
0.325263
0.327327
0.329235
0.331105
0.332842
0.334526
0.336103
0.337606
0.339038
0.340364
0.341661
0.342808
0.343973
0.344922
0.345944
0.346624
0.3475
0.347732
0.348607
0.226756
0.23193
0.23686
0.241515
0.245995
0.250259
0.254393
0.258352
0.262205
0.265899
0.269502
0.272956
0.276333
0.279567
0.282736
0.285767
0.288742
0.291584
0.294377
0.297036
0.299655
0.302142
0.304597
0.30692
0.309219
0.311385
0.313536
0.315552
0.317565
0.319438
0.321319
0.323053
0.32481
0.326411
0.328052
0.329526
0.331057
0.332408
0.333839
0.33507
0.336407
0.33752
0.338771
0.339762
0.340932
0.341768
0.342845
0.343377
0.344248
0.343492
0.221368
0.226777
0.231969
0.236903
0.241649
0.246177
0.250556
0.254746
0.258813
0.262706
0.266497
0.270123
0.273662
0.277043
0.280351
0.283504
0.286596
0.289536
0.292427
0.295167
0.297869
0.300419
0.302945
0.305316
0.307675
0.309877
0.312081
0.314122
0.316181
0.31807
0.319995
0.32174
0.323542
0.32515
0.326838
0.328316
0.3299
0.331252
0.332743
0.333973
0.335381
0.336494
0.337826
0.338828
0.340086
0.340982
0.34213
0.342878
0.343652
0.344081
0.226751
0.231938
0.236853
0.241524
0.245988
0.250268
0.254385
0.258362
0.262197
0.26591
0.269492
0.272968
0.276322
0.279581
0.282724
0.285782
0.288728
0.2916
0.294361
0.297055
0.299638
0.302163
0.304577
0.306943
0.309196
0.311411
0.31351
0.315582
0.317535
0.319472
0.321283
0.323093
0.324768
0.326458
0.328003
0.32958
0.331001
0.332473
0.333773
0.335148
0.336334
0.33762
0.3387
0.339903
0.340898
0.342032
0.342994
0.344043
0.345055
0.345496
0.210999
0.215859
0.22081
0.225787
0.230637
0.235412
0.240125
0.244762
0.249319
0.253786
0.258161
0.262439
0.266616
0.270692
0.274658
0.278521
0.282268
0.285912
0.289435
0.292857
0.296153
0.299353
0.302421
0.305401
0.308243
0.311008
0.313628
0.316184
0.318588
0.320943
0.323137
0.3253
0.327291
0.329273
0.331069
0.332882
0.33449
0.336146
0.337574
0.339089
0.340345
0.341735
0.342833
0.344124
0.345087
0.346324
0.34726
0.348611
0.349911
0.351982
0.226754
0.231934
0.236857
0.241519
0.245992
0.250264
0.254388
0.258358
0.2622
0.265906
0.269495
0.272964
0.276324
0.279577
0.282725
0.285779
0.28873
0.291598
0.294362
0.297053
0.299637
0.302163
0.304575
0.306945
0.309191
0.311415
0.313503
0.31559
0.317525
0.319483
0.321269
0.323108
0.32475
0.326478
0.327979
0.329606
0.330969
0.332504
0.333731
0.335185
0.336274
0.337655
0.3386
0.339912
0.34069
0.34194
0.342439
0.343827
0.344242
0.341106
0.244203
0.246226
0.245437
0.243659
0.241599
0.23945
0.237256
0.235036
0.232825
0.230617
0.228437
0.226272
0.224147
0.22204
0.21998
0.217941
0.215954
0.213988
0.21208
0.210201
0.20838
0.206587
0.204852
0.203146
0.201497
0.199879
0.198313
0.196786
0.195303
0.193865
0.192464
0.191115
0.189794
0.188534
0.187292
0.186121
0.184958
0.183875
0.182794
0.1818
0.18081
0.179916
0.179048
0.178304
0.177646
0.17721
0.176953
0.17692
0.176548
0.178543
0.238954
0.242804
0.242895
0.24248
0.2415
0.239992
0.238257
0.23636
0.234375
0.232315
0.230233
0.228108
0.225994
0.223845
0.22173
0.219579
0.217482
0.215339
0.213273
0.211147
0.209123
0.207022
0.205052
0.202981
0.201074
0.199037
0.197202
0.195201
0.193447
0.191484
0.189815
0.187891
0.186314
0.184429
0.182945
0.1811
0.179712
0.177907
0.176615
0.174851
0.173658
0.171933
0.170843
0.16915
0.168168
0.166554
0.16557
0.164258
0.163863
0.170824
0.244198
0.246223
0.245438
0.243658
0.241596
0.239452
0.237253
0.235039
0.232821
0.23062
0.228433
0.226277
0.224141
0.222046
0.219973
0.217948
0.215945
0.213996
0.212071
0.210211
0.208368
0.206599
0.204839
0.20316
0.201482
0.199895
0.198296
0.196804
0.195284
0.193886
0.192441
0.191139
0.189767
0.188561
0.18726
0.186149
0.184916
0.183899
0.182727
0.181798
0.180679
0.179818
0.178723
0.177909
0.176828
0.175972
0.174872
0.173131
0.172016
0.16796
0.226749
0.231941
0.236851
0.241527
0.245985
0.250272
0.254382
0.258366
0.262193
0.265914
0.269488
0.272973
0.276317
0.279587
0.282718
0.285789
0.288722
0.291608
0.294354
0.297063
0.29963
0.302172
0.304568
0.306954
0.309185
0.311423
0.313497
0.315597
0.31752
0.319489
0.321266
0.323112
0.324749
0.32648
0.327981
0.329606
0.330975
0.332503
0.333744
0.335184
0.336303
0.337668
0.33867
0.339921
0.340738
0.341684
0.341986
0.341453
0.337231
0.334461
0.221368
0.22678
0.231967
0.236905
0.241647
0.24618
0.250554
0.254749
0.25881
0.26271
0.266494
0.270127
0.273658
0.277048
0.280346
0.283509
0.286591
0.289542
0.292422
0.295173
0.297864
0.300425
0.302939
0.305322
0.30767
0.309882
0.312076
0.314127
0.316177
0.318074
0.319992
0.321743
0.32354
0.325151
0.326838
0.328314
0.329902
0.331246
0.332747
0.333961
0.335384
0.336469
0.337817
0.338773
0.340028
0.34087
0.341898
0.342952
0.343731
0.344539
0.238957
0.242801
0.242895
0.242484
0.241498
0.239991
0.238257
0.23636
0.234374
0.232317
0.230232
0.228111
0.225991
0.22385
0.221725
0.219586
0.217473
0.21535
0.21326
0.211163
0.209104
0.207044
0.205026
0.20301
0.20104
0.199076
0.197158
0.195252
0.19339
0.191547
0.189745
0.18797
0.186228
0.184523
0.182845
0.181211
0.179598
0.178038
0.176496
0.175013
0.173551
0.172165
0.170811
0.169573
0.168419
0.167484
0.166668
0.166438
0.164112
0.164983
0.230738
0.233313
0.235207
0.236684
0.237289
0.237122
0.236643
0.235619
0.234277
0.232681
0.230911
0.228987
0.226971
0.224851
0.222688
0.220449
0.218202
0.21589
0.213599
0.211245
0.208939
0.206563
0.204264
0.201882
0.199608
0.197232
0.194998
0.192634
0.190455
0.188108
0.185994
0.183668
0.181631
0.179325
0.177375
0.175086
0.173234
0.170958
0.169215
0.166947
0.165322
0.163055
0.161561
0.159288
0.157942
0.155675
0.154559
0.152182
0.152337
0.146435
0.238955
0.242803
0.242895
0.24248
0.241499
0.239994
0.238255
0.236363
0.234371
0.23232
0.230227
0.228116
0.225985
0.223856
0.221717
0.219594
0.217463
0.215361
0.213247
0.211177
0.209089
0.207061
0.205007
0.203032
0.201016
0.199102
0.197129
0.195283
0.193355
0.191585
0.189704
0.188014
0.18618
0.184574
0.182787
0.181267
0.179526
0.178093
0.176397
0.175046
0.173379
0.172094
0.170418
0.169128
0.167337
0.166007
0.163952
0.162832
0.158342
0.163861
0.221361
0.226787
0.231961
0.236915
0.241639
0.24619
0.250544
0.254761
0.2588
0.262723
0.266481
0.270142
0.273645
0.277064
0.280331
0.283527
0.286573
0.289562
0.292402
0.295196
0.29784
0.300452
0.302912
0.305352
0.307639
0.309917
0.31204
0.314167
0.316135
0.318121
0.319943
0.321798
0.323482
0.325215
0.32677
0.32839
0.329822
0.331338
0.332655
0.334075
0.335284
0.336621
0.337733
0.339008
0.340048
0.341059
0.341761
0.340823
0.33585
0.327507
0.226754
0.231934
0.236857
0.24152
0.245992
0.250264
0.254388
0.258358
0.2622
0.265906
0.269495
0.272965
0.276324
0.279578
0.282725
0.28578
0.28873
0.291599
0.294362
0.297054
0.299637
0.302164
0.304574
0.306946
0.309191
0.311416
0.313502
0.315591
0.317524
0.319484
0.321268
0.323109
0.324749
0.32648
0.327978
0.329608
0.330967
0.332507
0.333729
0.335188
0.336271
0.337658
0.338597
0.339915
0.34069
0.341935
0.34246
0.343811
0.344224
0.341341
0.244209
0.246226
0.245434
0.24366
0.2416
0.23945
0.237256
0.235036
0.232825
0.230617
0.228437
0.226272
0.224147
0.22204
0.21998
0.217941
0.215954
0.213988
0.212081
0.210201
0.20838
0.206587
0.204852
0.203146
0.201497
0.199879
0.198314
0.196786
0.195304
0.193865
0.192465
0.191114
0.189795
0.188534
0.187293
0.186121
0.184959
0.183875
0.182795
0.1818
0.180811
0.179915
0.179052
0.178295
0.177657
0.177193
0.176943
0.177032
0.176376
0.178388
0.238957
0.242802
0.242895
0.242484
0.241497
0.239991
0.238257
0.23636
0.234375
0.232316
0.230233
0.228108
0.225994
0.223845
0.221731
0.219579
0.217482
0.215339
0.213273
0.211147
0.209123
0.207022
0.205052
0.20298
0.201074
0.199037
0.197203
0.195201
0.193447
0.191483
0.189816
0.187891
0.186314
0.184428
0.182946
0.181099
0.179712
0.177906
0.176616
0.17485
0.173659
0.171932
0.170844
0.169149
0.168169
0.166555
0.16556
0.164267
0.163886
0.170894
0.244202
0.246227
0.245437
0.243661
0.241597
0.239452
0.237253
0.235039
0.232821
0.230621
0.228433
0.226277
0.224141
0.222046
0.219974
0.217948
0.215946
0.213996
0.212072
0.21021
0.208369
0.206598
0.20484
0.203159
0.201483
0.199893
0.198298
0.196802
0.195286
0.193884
0.192444
0.191136
0.189771
0.188557
0.187264
0.186145
0.18492
0.183894
0.182732
0.181793
0.180685
0.179812
0.178729
0.177901
0.176841
0.175957
0.174864
0.173285
0.172096
0.167994
0.226749
0.231941
0.236851
0.241527
0.245985
0.250272
0.254382
0.258366
0.262193
0.265914
0.269488
0.272973
0.276317
0.279586
0.282718
0.285788
0.288722
0.291607
0.294354
0.297063
0.299629
0.302172
0.304567
0.306953
0.309185
0.311423
0.313497
0.315596
0.31752
0.319488
0.321266
0.323112
0.324748
0.32648
0.32798
0.329606
0.330974
0.332503
0.333743
0.335185
0.336301
0.33767
0.338664
0.339933
0.34071
0.341735
0.341954
0.342611
0.336062
0.338413
0.211011
0.215841
0.220824
0.225769
0.230652
0.235392
0.240141
0.244742
0.249336
0.253765
0.258179
0.262417
0.266635
0.270668
0.274679
0.278496
0.28229
0.285886
0.289459
0.29283
0.296178
0.299324
0.302448
0.30537
0.308273
0.310975
0.31366
0.31615
0.318621
0.320907
0.323172
0.325263
0.327328
0.329234
0.331107
0.332841
0.334527
0.336102
0.337608
0.339036
0.340366
0.341659
0.34281
0.343972
0.344924
0.345942
0.346641
0.347453
0.347837
0.348648
0.226756
0.23193
0.23686
0.241515
0.245995
0.250259
0.254393
0.258352
0.262206
0.265899
0.269503
0.272956
0.276333
0.279568
0.282736
0.285768
0.288743
0.291585
0.294378
0.297037
0.299656
0.302143
0.304598
0.30692
0.30922
0.311385
0.313537
0.315553
0.317566
0.319438
0.32132
0.323053
0.324811
0.326412
0.328053
0.329526
0.331058
0.332408
0.33384
0.33507
0.336408
0.33752
0.338772
0.339762
0.340933
0.341767
0.342849
0.343366
0.344259
0.343495
0.221369
0.226778
0.231968
0.236903
0.241649
0.246177
0.250557
0.254746
0.258814
0.262707
0.266497
0.270123
0.273663
0.277043
0.280351
0.283504
0.286597
0.289536
0.292428
0.295167
0.29787
0.300419
0.302945
0.305316
0.307676
0.309877
0.312082
0.314122
0.316182
0.31807
0.319996
0.321741
0.323542
0.325151
0.326838
0.328316
0.3299
0.331252
0.332743
0.333974
0.335381
0.336495
0.337826
0.338829
0.340087
0.340982
0.342131
0.342876
0.343651
0.344062
0.226751
0.231938
0.236854
0.241524
0.245988
0.250268
0.254386
0.258361
0.262197
0.265909
0.269493
0.272967
0.276323
0.27958
0.282724
0.285781
0.288729
0.291599
0.294363
0.297053
0.299639
0.302161
0.304579
0.306941
0.309198
0.311409
0.313512
0.31558
0.317537
0.319469
0.321286
0.32309
0.324772
0.326454
0.328007
0.329576
0.331005
0.332468
0.333779
0.335143
0.33634
0.337614
0.338706
0.339898
0.340902
0.342031
0.34299
0.344054
0.345035
0.345494
0.210998
0.215858
0.22081
0.225787
0.230637
0.235411
0.240125
0.244762
0.249319
0.253786
0.258161
0.262439
0.266616
0.270691
0.274658
0.27852
0.282268
0.285912
0.289435
0.292857
0.296153
0.299352
0.302421
0.3054
0.308244
0.311007
0.313629
0.316183
0.318589
0.320942
0.323138
0.325299
0.327292
0.329273
0.33107
0.332881
0.334491
0.336145
0.337575
0.339088
0.340347
0.341734
0.342835
0.344122
0.34509
0.346317
0.347276
0.348595
0.349887
0.352248
0.348145
0.347026
0.338131
0.369616
0.534098
0.343194
0.336233
0.328827
0.373084
0.543293
0.341255
0.339563
0.32845
0.374756
0.501834
0.346139
0.33993
0.335855
0.406922
0.528494
0.355079
0.355112
0.350867
0.404678
0.575767
0.3404
0.31916
0.395718
1.453
1.25344
0.189673
0.196176
0.431027
1.60022
1.25035
0.163601
0.271856
0.416775
1.65842
1.31562
0.211492
0.257734
0.64064
1.9937
1.40229
0.295835
0.306274
0.532802
2.04188
1.58319
0.329695
0.313268
0.402576
1.68496
1.40638
0.162347
0.229741
0.426706
1.90892
1.43464
0.187511
0.239944
0.596074
1.97144
1.50683
0.171773
0.320844
0.728236
2.39507
1.63907
0.296662
0.312681
0.6037
2.47489
1.84863
0.340156
0.319281
0.396121
1.45264
1.25324
0.18943
0.195695
0.433068
1.60061
1.25052
0.163505
0.271937
0.416899
1.65888
1.3158
0.211341
0.258023
0.641651
1.99452
1.403
0.291323
0.302331
0.53283
2.04187
1.58333
0.348071
0.347078
0.338193
0.369672
0.534072
0.343217
0.33632
0.328897
0.373272
0.5434
0.341302
0.339586
0.328548
0.37492
0.502095
0.346125
0.340036
0.335977
0.407203
0.529098
0.355011
0.35508
0.350961
0.404814
0.576074
0.0952599
0.197714
0.257755
0.278645
0.250112
0.0981721
0.20751
0.270744
0.294712
0.263269
0.0994578
0.211569
0.277416
0.300598
0.26799
0.102143
0.220187
0.289363
0.313899
0.278724
0.103825
0.225781
0.297339
0.322457
0.285465
0.106655
0.23475
0.30996
0.336173
0.29645
0.108758
0.241773
0.319832
0.346752
0.304625
0.111788
0.251379
0.333329
0.361364
0.316196
0.114332
0.25986
0.345171
0.373976
0.325773
0.117631
0.270388
0.359885
0.389815
0.338105
0.120642
0.28041
0.373787
0.404537
0.349084
0.124292
0.292154
0.390063
0.421911
0.362311
0.127811
0.30386
0.406162
0.43884
0.374672
0.131902
0.317128
0.424332
0.458027
0.38887
0.135985
0.330727
0.442802
0.477265
0.402547
0.140616
0.345844
0.463176
0.498482
0.417708
0.145342
0.361604
0.484203
0.520089
0.432549
0.150617
0.378916
0.507043
0.543448
0.448531
0.156071
0.39714
0.530787
0.567375
0.464239
0.162106
0.417004
0.556277
0.592803
0.480703
0.168404
0.438019
0.582812
0.618779
0.496763
0.175346
0.460765
0.610981
0.645889
0.513105
0.182688
0.484834
0.640198
0.673265
0.528712
0.190881
0.510634
0.670843
0.701168
0.543991
0.200054
0.537704
0.702383
0.72868
0.558005
0.210023
0.566613
0.735049
0.755705
0.570948
0.220581
0.596833
0.768379
0.781143
0.581961
0.231799
0.628263
0.802635
0.804461
0.591144
0.243193
0.659439
0.837803
0.824209
0.597793
0.256312
0.691258
0.871681
0.840198
0.601341
0.272053
0.722921
0.903878
0.848996
0.6028
0.289835
0.753717
0.933258
0.85249
0.60289
0.308414
0.782523
0.958388
0.851957
0.599474
0.327506
0.808273
0.977312
0.837529
0.595746
0.346376
0.829689
0.986598
0.817838
0.588909
0.36563
0.847173
0.989731
0.786314
0.584251
0.381788
0.855735
0.982874
0.750435
0.577119
0.397059
0.857706
0.95945
0.707291
0.572871
0.410162
0.850252
0.920432
0.659134
0.566557
0.419172
0.836731
0.873478
0.608857
0.562925
0.427762
0.823073
0.819174
0.552615
0.556614
0.427752
0.820741
0.755167
0.501079
0.552085
0.425779
0.803158
0.670898
0.453643
0.547186
0.415858
0.765083
0.57629
0.415069
0.543046
0.398211
0.70304
0.470677
0.381421
0.5372
0.379088
0.617278
0.378235
0.357808
0.531892
0.346072
0.525513
0.326947
0.345163
0.523882
0.324455
0.436713
0.29947
0.338408
0.515126
0.273615
0.26707
0.287791
0.339148
0.512246
0.270211
0.287548
0.319834
0.357542
0.51795
0.159441
0.348197
0.387781
0.359603
0.266535
0.16625
0.370474
0.415781
0.38799
0.288084
0.169308
0.380165
0.427467
0.39951
0.296418
0.175522
0.399199
0.451112
0.423459
0.314647
0.179607
0.41308
0.468476
0.440694
0.327165
0.186058
0.432772
0.492858
0.465549
0.346212
0.191224
0.450031
0.514613
0.487287
0.362124
0.198112
0.471472
0.541253
0.514511
0.382955
0.204357
0.492073
0.567332
0.540791
0.402373
0.211914
0.516081
0.59734
0.571506
0.425767
0.219282
0.540311
0.628106
0.602748
0.449016
0.227745
0.567649
0.662507
0.638037
0.475761
0.236341
0.596022
0.698633
0.67496
0.503336
0.245953
0.6275
0.738499
0.715981
0.534268
0.255948
0.66074
0.780928
0.759574
0.566811
0.266974
0.6973
0.827468
0.807616
0.602803
0.278605
0.736352
0.877403
0.859125
0.641052
0.291348
0.77912
0.932033
0.915648
0.682968
0.304912
0.825149
0.990972
0.97655
0.727655
0.319717
0.87546
1.0554
1.04318
0.776209
0.335569
0.929897
1.12523
1.11508
0.827825
0.352835
0.98934
1.20152
1.19348
0.883308
0.37139
1.05387
1.28438
1.27801
0.941748
0.391555
1.12425
1.37484
1.36974
1.00354
0.413279
1.20071
1.47309
1.46829
1.06742
0.436782
1.28394
1.58011
1.57444
1.13312
0.462017
1.37418
1.69606
1.68762
1.19869
0.489167
1.472
1.8216
1.8082
1.26298
0.518323
1.57768
1.95665
1.93503
1.32314
0.550453
1.69202
2.10127
2.06751
1.37697
0.585841
1.81353
2.25465
2.20328
1.42071
0.627708
1.9427
2.4159
2.34006
1.4508
0.673753
2.07795
2.58267
2.47329
1.46251
0.722445
2.21729
2.75193
2.59759
1.4654
0.772947
2.35901
2.91943
2.70438
1.44025
0.824684
2.4992
3.07991
2.77473
1.4011
0.876284
2.63479
3.22925
2.80457
1.34301
0.925875
2.75991
3.36072
2.80714
1.27597
0.971284
2.86576
3.4592
2.71101
1.19682
1.00929
2.94715
3.51353
2.57044
1.12164
1.04099
2.99179
3.53179
2.34946
1.04594
1.04501
2.98235
3.49209
2.08185
0.986165
1.03106
2.89525
3.34058
1.77162
0.937121
0.988834
2.73053
3.06574
1.46968
0.910047
0.905884
2.46121
2.63545
1.16884
0.895418
0.809807
2.10645
2.03536
0.944839
0.893161
0.69598
1.79119
1.39572
0.770443
0.91692
0.599128
1.50049
0.770525
0.677986
0.986701
0.438431
0.717955
0.465512
0.662901
1.11323
0.318212
0.35543
0.371146
0.981174
1.18372
0.175771
0.373232
0.41026
0.372409
0.271763
0.183478
0.397229
0.439529
0.401352
0.293564
0.186934
0.407805
0.452008
0.413378
0.302139
0.193908
0.428164
0.476614
0.437757
0.320648
0.198543
0.443342
0.495191
0.455814
0.333644
0.205754
0.464356
0.520493
0.481056
0.353002
0.211604
0.483133
0.543648
0.503792
0.369626
0.219282
0.506032
0.571341
0.531518
0.390907
0.22633
0.528333
0.59895
0.558926
0.411282
0.234741
0.553992
0.630212
0.590346
0.435382
0.243025
0.580117
0.662655
0.622873
0.459894
0.252436
0.609334
0.698543
0.659135
0.487729
0.262067
0.639832
0.736539
0.69757
0.516981
0.272747
0.673456
0.778161
0.739902
0.549538
0.283912
0.709095
0.822711
0.785334
0.584342
0.296151
0.748112
0.871329
0.835133
0.622703
0.309114
0.78989
0.923721
0.888956
0.664065
0.323249
0.835494
0.980849
0.947845
0.709417
0.338345
0.884672
1.04272
1.01174
0.758471
0.354763
0.938294
1.11019
1.08157
0.811985
0.372386
0.996385
1.18348
1.15743
0.86975
0.391512
1.05971
1.26345
1.24024
0.932334
0.412051
1.12849
1.35051
1.33018
0.999409
0.434286
1.20344
1.44547
1.42802
1.07123
0.458234
1.28492
1.54885
1.53396
1.1471
0.48408
1.37357
1.66142
1.6486
1.22669
0.511856
1.4698
1.78365
1.77187
1.30858
0.541736
1.57414
1.91609
1.904
1.39149
0.573786
1.68699
2.05895
2.04427
1.47284
0.608252
1.80869
2.21235
2.192
1.55
0.646095
1.93885
2.37579
2.34525
1.61911
0.692838
2.0777
2.54839
2.50157
1.67657
0.743639
2.22371
2.72813
2.65663
1.71217
0.797071
2.37529
2.91229
2.80549
1.73038
0.852452
2.53054
3.09716
2.93978
1.73302
0.90882
2.68584
3.27738
3.04885
1.69987
0.965205
2.83713
3.44714
3.11115
1.64985
1.01893
2.97965
3.60159
3.13432
1.57393
1.0686
3.10321
3.72757
3.09996
1.48464
1.10844
3.19856
3.80494
2.98053
1.38408
1.14309
3.25474
3.83499
2.78945
1.2867
1.14827
3.25731
3.81221
2.51765
1.1932
1.13488
3.17169
3.65783
2.17416
1.11565
1.08997
2.988
3.37067
1.80417
1.05489
0.997486
2.67403
2.88004
1.43583
1.02406
0.883518
2.25781
2.18714
1.12407
1.01218
0.751092
1.87966
1.43918
0.873318
1.01899
0.634797
1.54253
0.784577
0.775306
1.10496
0.464976
0.721647
0.47514
0.747644
1.254
0.329709
0.352161
0.371703
1.15969
1.33836
0.159439
0.348191
0.38777
0.359588
0.26652
0.166248
0.370465
0.415769
0.387973
0.288068
0.169306
0.380158
0.427454
0.399492
0.296401
0.175521
0.399191
0.4511
0.423442
0.314629
0.179605
0.413073
0.468462
0.440675
0.327146
0.186057
0.432764
0.492845
0.465529
0.346193
0.191222
0.450023
0.514599
0.487267
0.362103
0.19811
0.471463
0.541239
0.51449
0.382934
0.204356
0.492065
0.567317
0.540769
0.40235
0.211913
0.516072
0.597324
0.571482
0.425743
0.219281
0.540302
0.628091
0.602724
0.448991
0.227744
0.56764
0.66249
0.638012
0.475735
0.23634
0.596013
0.698617
0.674934
0.503309
0.245952
0.627491
0.738481
0.715953
0.53424
0.255948
0.660731
0.78091
0.759545
0.566781
0.266975
0.697291
0.82745
0.807587
0.602772
0.278605
0.736343
0.877385
0.859094
0.641019
0.291349
0.779111
0.932015
0.915616
0.682934
0.304913
0.825141
0.990954
0.976518
0.72762
0.319719
0.875452
1.05539
1.04315
0.776173
0.335572
0.92989
1.12521
1.11505
0.827788
0.352839
0.989334
1.20151
1.19344
0.883273
0.371395
1.05386
1.28436
1.27798
0.941714
0.391561
1.12425
1.37483
1.36971
1.00351
0.413286
1.20071
1.47309
1.46827
1.06739
0.436791
1.28395
1.58011
1.57442
1.13311
0.462028
1.37419
1.69606
1.6876
1.19869
0.489182
1.47202
1.82161
1.80819
1.263
0.51834
1.57771
1.95667
1.93504
1.3232
0.550475
1.69205
2.1013
2.06753
1.37707
0.585866
1.81357
2.25469
2.20331
1.42087
0.627735
1.94276
2.41596
2.34011
1.45103
0.673784
2.07802
2.58275
2.47335
1.46281
0.722479
2.21737
2.75201
2.59766
1.46574
0.772986
2.35911
2.91955
2.70447
1.44075
0.824726
2.4993
3.08004
2.77483
1.40164
0.876329
2.6349
3.22939
2.80467
1.34367
0.925919
2.76002
3.36086
2.80725
1.27666
0.971324
2.86585
3.45933
2.71112
1.19756
1.00932
2.94722
3.51362
2.57048
1.12238
1.04101
2.99183
3.53186
2.34949
1.04663
1.04501
2.98235
3.4921
2.08185
0.986734
1.03106
2.89522
3.34056
1.77164
0.937508
0.98883
2.73051
3.06571
1.46968
0.91007
0.905871
2.46118
2.63541
1.16892
0.895459
0.809793
2.10642
2.03526
0.944882
0.893111
0.69593
1.79105
1.39556
0.770373
0.917085
0.599121
1.5002
0.770503
0.678029
0.986597
0.438267
0.717814
0.465604
0.662956
1.11332
0.318052
0.355022
0.371261
0.981203
1.18341
0.0952604
0.197713
0.257749
0.278635
0.250102
0.0981729
0.207507
0.270738
0.294701
0.263259
0.0994588
0.211568
0.277409
0.300587
0.267979
0.102144
0.220186
0.289357
0.313889
0.278715
0.103826
0.22578
0.297332
0.322445
0.285455
0.106656
0.234749
0.309954
0.336163
0.296442
0.10876
0.241773
0.319825
0.346741
0.304616
0.11179
0.251378
0.333323
0.361354
0.316188
0.114333
0.259859
0.345164
0.373966
0.325767
0.117633
0.270387
0.359879
0.389806
0.3381
0.120644
0.280409
0.373781
0.404528
0.34908
0.124294
0.292153
0.390057
0.421902
0.362308
0.127813
0.30386
0.406156
0.438833
0.374671
0.131904
0.317127
0.424328
0.45802
0.388871
0.135987
0.330726
0.442798
0.47726
0.402552
0.140618
0.345844
0.463173
0.498478
0.417715
0.145344
0.361604
0.484201
0.520087
0.432561
0.15062
0.378916
0.507043
0.543449
0.448548
0.156074
0.397141
0.530789
0.567379
0.464261
0.162109
0.417005
0.556281
0.592811
0.480732
0.168408
0.438021
0.582818
0.618791
0.4968
0.17535
0.460768
0.61099
0.645906
0.513151
0.182692
0.484838
0.64021
0.673288
0.528769
0.190885
0.51064
0.670859
0.701197
0.544061
0.200057
0.537712
0.702403
0.728717
0.55809
0.210026
0.566623
0.735073
0.75575
0.57105
0.220585
0.596845
0.768407
0.781199
0.582082
0.231805
0.628279
0.802666
0.804527
0.591286
0.243202
0.659462
0.837836
0.824286
0.597958
0.256321
0.691285
0.871722
0.840284
0.60153
0.272063
0.722951
0.903925
0.849091
0.603011
0.289847
0.753751
0.933319
0.852589
0.603112
0.308429
0.782561
0.958488
0.852069
0.599726
0.327513
0.808306
0.977223
0.837642
0.596
0.346396
0.829736
0.98674
0.817951
0.589181
0.365647
0.847209
0.989781
0.786421
0.584505
0.381803
0.855768
0.982911
0.750538
0.577375
0.397076
0.857735
0.959475
0.70738
0.573089
0.410178
0.850271
0.920437
0.659215
0.56676
0.419188
0.836752
0.873487
0.608902
0.563081
0.427775
0.823101
0.819191
0.552652
0.556737
0.427763
0.820752
0.755165
0.5011
0.552166
0.425786
0.803159
0.670909
0.453664
0.547238
0.41587
0.765075
0.576302
0.415078
0.543075
0.398205
0.702965
0.470695
0.381432
0.537215
0.379102
0.617312
0.378239
0.357809
0.531935
0.34607
0.525448
0.326943
0.345156
0.523936
0.324471
0.436684
0.299474
0.338412
0.515157
0.273586
0.267059
0.287797
0.339165
0.512269
0.27031
0.287557
0.319856
0.357502
0.517887
0.144227
0.15
0.153052
0.158343
0.161714
0.167357
0.171384
0.177394
0.182132
0.188591
0.194077
0.201066
0.207335
0.214925
0.222001
0.230239
0.238117
0.247025
0.255695
0.265261
0.274652
0.284794
0.294773
0.305342
0.315718
0.326525
0.337106
0.348
0.358667
0.369612
0.380474
0.391681
0.402924
0.414592
0.426293
0.43855
0.450346
0.46249
0.473513
0.484364
0.493313
0.501438
0.506883
0.510504
0.511471
0.511604
0.50731
0.503905
0.502804
0.501715
0.193214
0.203108
0.206641
0.21511
0.22039
0.229318
0.236061
0.245794
0.254116
0.264948
0.275019
0.28727
0.299305
0.313321
0.327573
0.343708
0.360448
0.379014
0.39843
0.419602
0.441726
0.465424
0.489936
0.515586
0.541539
0.567787
0.593337
0.617907
0.64043
0.660534
0.677369
0.690898
0.701591
0.709553
0.714397
0.719992
0.724595
0.731186
0.738545
0.748968
0.760733
0.775311
0.790874
0.808527
0.827573
0.849744
0.87719
0.909859
0.965551
0.994586
0.189665
0.19949
0.203026
0.211502
0.216831
0.225765
0.232637
0.2424
0.250942
0.261863
0.272266
0.284717
0.297228
0.311618
0.326553
0.343332
0.361062
0.380663
0.401513
0.424283
0.448484
0.474561
0.502029
0.531076
0.561093
0.591932
0.622731
0.652965
0.681498
0.70756
0.730025
0.748375
0.762162
0.771937
0.776619
0.779385
0.780525
0.781351
0.784258
0.789226
0.798239
0.810034
0.826181
0.845441
0.86995
0.899246
0.938184
0.981899
1.05521
1.09651
0.193206
0.203099
0.206631
0.215101
0.220379
0.229307
0.236049
0.245782
0.254103
0.264934
0.275005
0.287255
0.29929
0.313305
0.327557
0.343691
0.360431
0.378996
0.398412
0.419583
0.441708
0.465407
0.48992
0.515574
0.54153
0.567785
0.593344
0.617925
0.640462
0.660582
0.677435
0.690983
0.701689
0.709666
0.714524
0.720117
0.724722
0.731302
0.738651
0.749053
0.760798
0.775352
0.790896
0.808536
0.82758
0.84976
0.877207
0.909829
0.965514
0.99438
0.144219
0.149992
0.153042
0.158335
0.161704
0.167349
0.171375
0.177386
0.182123
0.188583
0.194069
0.201059
0.207328
0.214919
0.221995
0.230233
0.238112
0.247022
0.255694
0.265262
0.274656
0.284801
0.294783
0.305357
0.315737
0.32655
0.337137
0.348037
0.358711
0.369661
0.380528
0.391739
0.402983
0.414654
0.426352
0.438604
0.450396
0.46253
0.473548
0.484388
0.493333
0.501449
0.506893
0.510512
0.51148
0.511616
0.507329
0.503952
0.502774
0.501632
0.335761
0.344191
0.351923
0.400153
0.575767
0.381838
0.324345
0.340284
0.397594
0.580466
0.44485
0.443884
0.349873
0.399254
0.596378
0.485966
0.749638
0.387893
0.409778
0.62158
0.521823
0.881516
0.423982
0.426345
0.644603
0.556583
0.938699
0.491564
0.452365
0.661874
0.588654
0.965351
0.580545
0.485314
0.675405
0.604669
1.02562
0.677079
0.522799
0.686421
0.613476
1.07532
0.782622
0.565743
0.69447
0.615989
1.11694
0.88814
0.611324
0.70124
0.61402
1.14926
0.991703
0.661479
0.705934
0.600093
1.16496
1.06802
0.711096
0.710305
0.584433
1.16666
1.1385
0.763604
0.713247
0.559512
1.16469
1.19286
0.808121
0.713572
0.534884
1.15981
1.23205
0.852845
0.71316
0.509647
1.15007
1.25926
0.887776
0.711999
0.486267
1.13413
1.2706
0.918473
0.710485
0.463093
1.11172
1.2684
0.944055
0.708229
0.443764
1.08577
1.25861
0.966212
0.706391
0.427542
1.05647
1.24122
0.979455
0.704215
0.412841
1.02483
1.21666
0.989833
0.701642
0.398475
0.991399
1.18743
0.989837
0.698509
0.384699
0.957241
1.15522
0.98723
0.69513
0.371085
0.922572
1.1208
0.980596
0.690526
0.358195
0.88832
1.08529
0.968795
0.685374
0.345571
0.854329
1.04887
0.953271
0.678742
0.33378
0.821452
1.01262
0.935449
0.671554
0.322269
0.78925
0.976351
0.915113
0.662805
0.311638
0.758583
0.941092
0.893744
0.653712
0.301252
0.72874
0.906286
0.870756
0.643104
0.291751
0.700669
0.873027
0.847741
0.632513
0.282433
0.673394
0.84038
0.823671
0.620487
0.273996
0.648027
0.809654
0.800367
0.60892
0.265653
0.623304
0.779452
0.776265
0.595954
0.258201
0.600573
0.751486
0.753588
0.583935
0.250705
0.578054
0.723967
0.730035
0.570453
0.244091
0.557659
0.699068
0.708494
0.558438
0.237292
0.537232
0.674006
0.685844
0.544766
0.231467
0.519239
0.651881
0.665891
0.533122
0.225278
0.500713
0.62888
0.644315
0.519486
0.220215
0.485023
0.609373
0.626216
0.508499
0.214541
0.468086
0.588071
0.605699
0.495031
0.210214
0.454592
0.571103
0.58962
0.484914
0.204951
0.438894
0.551133
0.570026
0.471667
0.201331
0.427525
0.536671
0.556082
0.46258
0.196392
0.412727
0.517672
0.537185
0.449534
0.193453
0.40342
0.505662
0.525512
0.441638
0.188794
0.389368
0.487517
0.506815
0.428525
0.18637
0.381382
0.476929
0.498536
0.42275
0.181386
0.36604
0.456903
0.475165
0.405916
0.35278
0.339618
0.403773
1.65155
1.61619
0.598242
0.695513
0.486095
1.22352
1.59409
0.837794
1.97473
0.73323
1.00538
1.52213
1.07302
3.15659
1.34909
1.03927
1.3955
1.20739
3.58768
1.99756
1.11956
1.30593
1.36123
3.9283
2.73711
1.27181
1.24936
1.52281
4.18433
3.46005
1.47136
1.21063
1.59513
4.336
4.06402
1.72429
1.18583
1.62365
4.41277
4.4647
1.98708
1.17517
1.61483
4.44718
4.72579
2.24486
1.17791
1.5728
4.4057
4.80814
2.47387
1.18685
1.5083
4.29784
4.77227
2.66812
1.20465
1.43094
4.1412
4.67635
2.83829
1.23483
1.3508
3.95839
4.51153
2.94548
1.26522
1.26945
3.76084
4.32329
3.02554
1.30245
1.19071
3.56223
4.11948
3.02961
1.33539
1.11574
3.3633
3.91031
3.01129
1.36478
1.04961
3.17156
3.70257
2.96508
1.38671
0.993182
2.987
3.49848
2.8851
1.40337
0.94104
2.81144
3.30028
2.78592
1.40809
0.892751
2.64596
3.11001
2.67497
1.4048
0.847452
2.4902
2.92837
2.55686
1.39614
0.805112
2.34423
2.75656
2.4364
1.37766
0.765414
2.20765
2.59441
2.31587
1.35143
0.728487
2.08041
2.44253
2.19808
1.31955
0.693914
1.96178
2.30014
2.08356
1.28231
0.661849
1.8517
2.16759
1.97412
1.2419
0.631812
1.7492
2.04372
1.86929
1.19834
0.604032
1.65435
1.92884
1.77039
1.15373
0.577919
1.56591
1.82155
1.67634
1.10771
0.553825
1.48423
1.72231
1.58833
1.06227
0.531065
1.40784
1.6295
1.50486
1.01655
0.510142
1.33747
1.54382
1.42721
0.97253
0.490242
1.27128
1.46341
1.35354
0.928852
0.472048
1.21055
1.38936
1.2854
0.887633
0.454557
1.15294
1.31949
1.22049
0.846891
0.438719
1.10042
1.25542
1.16088
0.80919
0.423228
1.04998
1.19444
1.1036
0.771706
0.40945
1.00454
1.13898
1.05162
0.737842
0.395637
0.960056
1.08541
1.00085
0.703549
0.383724
0.920772
1.03747
0.955718
0.673624
0.371224
0.881127
0.989926
0.910325
0.642194
0.361038
0.847365
0.948743
0.871506
0.616224
0.349507
0.81147
0.905845