/*--------------------------------*- C++ -*----------------------------------*\
| =========                 |                                                 |
| \\      /  F ield         | OpenFOAM: The Open Source CFD Toolbox           |
|  \\    /   O peration     | Version:                                        |
|   \\  /    A nd           | Website:  www.openfoam.com                      |
|    \\/     M anipulation  |                                                 |
\*---------------------------------------------------------------------------*/
FoamFile
{
    version     2.0;
    format      ascii;
    class       volScalarField;
    location    "1.5";
    object      nut;
}
// * * * * * * * * * * * * * * * * * * * * * * * * * * * * * * * * * * * * * //

dimensions      [0 2 -1 0 0 0 0];


internalField   nonuniform List<scalar> 
4375
(
0.000206329
0.000208667
0.000211059
0.000213409
0.000215704
0.00021791
0.000220096
0.000222195
0.000224271
0.000226254
0.000228213
0.000230079
0.000231921
0.000233668
0.000235393
0.000237023
0.000238632
0.000240147
0.000241643
0.000243046
0.000244432
0.000245726
0.000247005
0.000248196
0.000249372
0.000250463
0.000251542
0.000252539
0.000253524
0.000254432
0.000255328
0.000256153
0.000256964
0.000257712
0.000258443
0.00025912
0.000259775
0.000260386
0.000260968
0.000261521
0.000262031
0.00026253
0.00026297
0.000263418
0.000263776
0.000264178
0.000264403
0.000264812
0.000264772
0.000265274
0.000213886
0.000216304
0.000218588
0.000220726
0.000222763
0.000224686
0.000226534
0.00022829
0.000229986
0.0002316
0.000233164
0.000234653
0.000236101
0.000237478
0.00023882
0.000240097
0.000241344
0.000242529
0.000243687
0.000244786
0.000245862
0.000246881
0.000247882
0.000248825
0.000249755
0.000250628
0.000251493
0.0002523
0.000253104
0.000253849
0.000254595
0.000255281
0.000255974
0.000256605
0.000257249
0.000257826
0.000258425
0.000258951
0.000259508
0.000259985
0.000260505
0.000260933
0.000261422
0.000261791
0.000262269
0.000262533
0.000263059
0.000263035
0.00026387
0.000262255
0.00021133
0.000213886
0.000216321
0.000218609
0.000220787
0.000222845
0.000224819
0.000226691
0.000228493
0.000230206
0.00023186
0.000233433
0.000234957
0.000236404
0.000237811
0.000239145
0.000240445
0.000241675
0.000242879
0.000244014
0.000245129
0.000246176
0.000247208
0.000248174
0.000249131
0.000250021
0.000250909
0.000251728
0.000252551
0.000253305
0.00025407
0.000254762
0.000255474
0.000256108
0.000256772
0.000257352
0.000257972
0.0002585
0.000259081
0.00025956
0.000260105
0.000260539
0.00026105
0.000261446
0.000261912
0.000262295
0.000262658
0.000263098
0.000263081
0.000264265
0.000213885
0.000216308
0.000218585
0.000220729
0.00022276
0.00022469
0.00022653
0.000228294
0.000229982
0.000231605
0.00023316
0.000234659
0.000236096
0.000237484
0.000238815
0.000240103
0.000241338
0.000242535
0.000243681
0.000244793
0.000245855
0.000246889
0.000247873
0.000248834
0.000249746
0.000250639
0.000251482
0.000252312
0.000253091
0.000253862
0.000254581
0.000255297
0.000255958
0.000256623
0.00025723
0.000257847
0.000258402
0.000258976
0.000259483
0.000260015
0.000260477
0.000260971
0.000261394
0.00026185
0.000262246
0.000262657
0.000263085
0.000263333
0.000264156
0.000263092
0.000206324
0.000208676
0.000211052
0.000213418
0.000215697
0.000217918
0.000220089
0.000222204
0.000224263
0.000226263
0.000228205
0.000230089
0.000231912
0.000233678
0.000235384
0.000237033
0.000238623
0.000240158
0.000241633
0.000243058
0.000244421
0.000245738
0.000246994
0.000248208
0.000249361
0.000250476
0.00025153
0.000252552
0.000253511
0.000254446
0.000255314
0.000256167
0.00025695
0.000257727
0.000258429
0.000259135
0.000259761
0.000260403
0.000260955
0.00026154
0.000262024
0.000262559
0.000262982
0.000263471
0.000263858
0.000264287
0.000264738
0.0002651
0.000265773
0.000266846
0.000213887
0.000216306
0.000218587
0.000220727
0.000222762
0.000224688
0.000226532
0.000228292
0.000229983
0.000231603
0.000233161
0.000234657
0.000236097
0.000237483
0.000238816
0.000240102
0.000241339
0.000242534
0.000243681
0.000244793
0.000245855
0.000246889
0.000247872
0.000248835
0.000249744
0.000250641
0.000251479
0.000252315
0.000253087
0.000253866
0.000254575
0.000255303
0.000255951
0.000256631
0.00025722
0.000257857
0.00025839
0.000258989
0.000259466
0.000260031
0.000260452
0.000260988
0.00026135
0.000261862
0.000262144
0.000262671
0.000262707
0.00026339
0.000264218
0.000259339
0.00209079
0.00157243
0.00131188
0.00114389
0.00102368
0.000932629
0.000860604
0.000801801
0.000752635
0.000710698
0.000674442
0.00064262
0.000614511
0.00058933
0.000566764
0.000546227
0.000527645
0.000510511
0.000494893
0.000480245
0.000466862
0.000454184
0.000442601
0.000431522
0.000421418
0.000411661
0.000402791
0.000394132
0.000386303
0.000378588
0.00037165
0.000364746
0.000358569
0.000352368
0.000346846
0.00034126
0.000336301
0.000331262
0.000326781
0.00032223
0.000318131
0.000314028
0.000310125
0.000306422
0.000302487
0.000298534
0.000295004
0.000289447
0.00028732
0.000286199
0.00230427
0.00188521
0.00161569
0.0014358
0.00129477
0.00118065
0.00108756
0.00101043
0.000945059
0.000888912
0.000839851
0.000796917
0.0007587
0.000724708
0.000694028
0.000666367
0.000641156
0.000618146
0.00059706
0.0005776
0.000559698
0.000542969
0.000527575
0.000512985
0.000499617
0.000486733
0.000475042
0.000463531
0.000453253
0.000442851
0.00043379
0.000424292
0.000416311
0.000407548
0.000400541
0.000392367
0.000386261
0.000378612
0.000373194
0.000366104
0.000361272
0.000354627
0.000350353
0.000344074
0.000340333
0.000334471
0.000330423
0.000324571
0.00032185
0.000321462
0.00209082
0.00157237
0.00131189
0.00114386
0.00102368
0.00093261
0.0008606
0.000801792
0.000752624
0.000710699
0.000674422
0.000642632
0.000614483
0.000589353
0.000566725
0.000546262
0.000527594
0.00051056
0.000494828
0.000480303
0.000466784
0.000454253
0.000442509
0.000431604
0.000421312
0.000411757
0.00040267
0.000394242
0.000386168
0.000378714
0.0003715
0.000364888
0.000358405
0.00035253
0.00034667
0.00034145
0.000336124
0.000331497
0.000326635
0.000322556
0.000318112
0.000314563
0.000310548
0.000307451
0.000303787
0.000301148
0.000297829
0.000294507
0.000292539
0.000289785
0.000213884
0.000216309
0.000218583
0.000220731
0.000222759
0.000224691
0.000226529
0.000228296
0.00022998
0.000231607
0.000233158
0.000234661
0.000236094
0.000237486
0.000238813
0.000240106
0.000241335
0.000242538
0.000243678
0.000244797
0.000245852
0.000246893
0.00024787
0.000248839
0.000249741
0.000250644
0.000251477
0.000252318
0.000253085
0.000253869
0.000254574
0.000255304
0.00025595
0.000256632
0.000257221
0.000257857
0.000258392
0.000258988
0.000259471
0.00026003
0.000260464
0.000260991
0.000261379
0.000261849
0.0002622
0.000262504
0.000262548
0.000262543
0.000261302
0.000265946
0.000211332
0.00021389
0.000216317
0.000218607
0.000220786
0.000222847
0.000224818
0.000226692
0.000228492
0.000230207
0.000231859
0.000233434
0.000234955
0.000236406
0.000237809
0.000239147
0.000240443
0.000241678
0.000242877
0.000244017
0.000245126
0.000246178
0.000247206
0.000248176
0.000249129
0.000250023
0.000250906
0.00025173
0.00025255
0.000253306
0.000254069
0.000254763
0.000255473
0.000256109
0.000256772
0.000257351
0.000257973
0.000258499
0.000259082
0.000259557
0.000260105
0.000260533
0.000261041
0.000261434
0.000261872
0.000262293
0.000262417
0.00026375
0.000262053
0.000267826
0.0023042
0.00188522
0.00161547
0.0014368
0.00129498
0.00118062
0.00108766
0.00101036
0.00094515
0.00088884
0.000839938
0.000796845
0.000758784
0.000724637
0.000694107
0.000666301
0.000641227
0.000618088
0.00059712
0.000577554
0.000559743
0.000542941
0.000527598
0.000512982
0.00049961
0.000486764
0.000474996
0.000463607
0.000453155
0.000442985
0.000433625
0.0004245
0.000416059
0.000407849
0.000400178
0.00039278
0.000385752
0.000379085
0.000372637
0.000366499
0.000360569
0.000354791
0.000349075
0.000343765
0.000337392
0.000331917
0.000325886
0.000319704
0.000312811
0.000314211
0.00258732
0.00248362
0.00229111
0.0021088
0.00194209
0.00179343
0.00166606
0.00155305
0.00145396
0.00136678
0.00128961
0.00122097
0.00115958
0.00110435
0.0010545
0.00100916
0.000967934
0.000930054
0.000895423
0.000863281
0.000833815
0.000806164
0.000780819
0.000756729
0.000734733
0.000713497
0.000694279
0.000675348
0.000658474
0.000641408
0.000626555
0.000611026
0.000598048
0.000583659
0.000572004
0.000558804
0.000548575
0.000536129
0.000527257
0.000515352
0.000507798
0.000496223
0.000489957
0.000478432
0.000473406
0.000461644
0.000457759
0.000444839
0.000433116
0.000429614
0.00230438
0.00188508
0.0016158
0.00143568
0.00129486
0.00118055
0.00108765
0.00101033
0.000945145
0.000888822
0.00083993
0.000796837
0.000758771
0.000724638
0.000694088
0.000666311
0.0006412
0.000618109
0.000597084
0.000577587
0.000559694
0.000542988
0.000527536
0.000513046
0.000499531
0.000486846
0.000474896
0.000463711
0.000453032
0.000443115
0.000433476
0.000424662
0.000415882
0.000408049
0.000399973
0.000393034
0.000385509
0.000379496
0.000372442
0.000367158
0.000360589
0.000356054
0.00035009
0.000346235
0.000341452
0.000338181
0.000334073
0.000332694
0.000328241
0.000341182
0.000211326
0.000213891
0.000216317
0.000218614
0.000220782
0.000222851
0.000224814
0.000226697
0.000228487
0.000230213
0.000231854
0.000233441
0.000234949
0.000236413
0.000237802
0.000239154
0.000240436
0.000241686
0.000242868
0.000244026
0.000245117
0.000246189
0.000247195
0.000248188
0.000249116
0.000250037
0.000250892
0.000251746
0.000252533
0.000253325
0.000254049
0.000254785
0.000255451
0.000256134
0.000256746
0.000257381
0.000257942
0.000258534
0.000259048
0.000259599
0.00026007
0.000260586
0.00026102
0.000261503
0.000261938
0.000262205
0.000262809
0.00026041
0.000260946
0.000244764
0.000213885
0.000216305
0.000218588
0.000220728
0.000222762
0.000224688
0.000226532
0.000228292
0.000229983
0.000231603
0.000233161
0.000234657
0.000236097
0.000237483
0.000238816
0.000240102
0.000241339
0.000242535
0.000243681
0.000244793
0.000245855
0.000246889
0.000247872
0.000248835
0.000249744
0.000250641
0.000251479
0.000252315
0.000253087
0.000253867
0.000254575
0.000255303
0.00025595
0.000256631
0.00025722
0.000257858
0.000258389
0.00025899
0.000259465
0.000260031
0.000260451
0.000260988
0.00026135
0.00026186
0.000262153
0.000262653
0.000262749
0.000263372
0.000264182
0.000259529
0.00209084
0.00157242
0.00131191
0.00114389
0.00102367
0.000932627
0.000860602
0.000801798
0.000752633
0.000710695
0.00067444
0.000642617
0.00061451
0.000589327
0.000566763
0.000546224
0.000527644
0.000510508
0.00049489
0.000480239
0.000466858
0.000454177
0.000442596
0.000431514
0.000421412
0.000411653
0.000402785
0.000394124
0.000386298
0.00037858
0.000371645
0.000364737
0.000358565
0.000352359
0.000346841
0.000341252
0.000336296
0.000331254
0.000326777
0.000322216
0.000318146
0.000313965
0.000310266
0.000306142
0.000303017
0.000298155
0.000295662
0.000289334
0.00028991
0.00028433
0.00230417
0.00188528
0.00161541
0.00143688
0.00129492
0.0011807
0.00108758
0.00101044
0.000945071
0.00088892
0.000839859
0.000796923
0.000758706
0.000724712
0.000694034
0.00066637
0.00064116
0.000618148
0.000597064
0.000577602
0.000559702
0.00054297
0.000527579
0.000512986
0.000499621
0.000486733
0.000475045
0.000463531
0.000453256
0.00044285
0.000433794
0.000424291
0.000416314
0.000407547
0.000400544
0.000392366
0.000386264
0.000378609
0.000373195
0.000366093
0.0003613
0.000354606
0.000350368
0.000344069
0.000340325
0.000334489
0.00033039
0.000324599
0.000321909
0.000321534
0.00209087
0.00157237
0.00131192
0.00114387
0.00102368
0.000932617
0.000860604
0.000801799
0.000752627
0.000710705
0.000674425
0.000642637
0.000614485
0.000589358
0.000566727
0.000546267
0.000527595
0.000510565
0.000494832
0.00048031
0.00046679
0.000454261
0.000442516
0.000431611
0.00042132
0.000411764
0.000402679
0.000394249
0.000386178
0.000378719
0.000371511
0.000364892
0.000358417
0.000352533
0.000346684
0.00034145
0.00033614
0.000331494
0.000326653
0.000322549
0.000318133
0.000314552
0.000310575
0.00030743
0.000303838
0.000301102
0.000297798
0.000295042
0.000292674
0.000289791
0.000213882
0.000216309
0.000218584
0.000220731
0.000222759
0.000224691
0.000226529
0.000228296
0.00022998
0.000231607
0.000233158
0.000234661
0.000236094
0.000237486
0.000238813
0.000240106
0.000241335
0.000242538
0.000243678
0.000244796
0.000245852
0.000246893
0.000247869
0.000248838
0.000249741
0.000250644
0.000251477
0.000252318
0.000253085
0.000253869
0.000254574
0.000255304
0.00025595
0.000256632
0.00025722
0.000257857
0.000258392
0.000258988
0.00025947
0.000260031
0.000260463
0.000260994
0.000261372
0.000261866
0.00026217
0.000262521
0.000262723
0.000264445
0.000255873
0.000273948
0.000206327
0.000208666
0.000211059
0.000213409
0.000215704
0.00021791
0.000220097
0.000222195
0.000224271
0.000226254
0.000228213
0.000230079
0.000231921
0.000233668
0.000235393
0.000237023
0.000238632
0.000240147
0.000241643
0.000243046
0.000244432
0.000245726
0.000247006
0.000248196
0.000249373
0.000250463
0.000251542
0.000252539
0.000253524
0.000254432
0.000255328
0.000256153
0.000256964
0.000257712
0.000258444
0.00025912
0.000259775
0.000260386
0.000260969
0.00026152
0.000262032
0.00026253
0.000262971
0.000263417
0.00026378
0.000264172
0.000264431
0.000264768
0.000264741
0.000265436
0.000213886
0.000216304
0.000218589
0.000220726
0.000222763
0.000224686
0.000226534
0.00022829
0.000229986
0.0002316
0.000233164
0.000234654
0.000236101
0.000237478
0.000238821
0.000240097
0.000241344
0.000242529
0.000243688
0.000244786
0.000245863
0.000246881
0.000247882
0.000248825
0.000249755
0.000250628
0.000251493
0.0002523
0.000253104
0.000253849
0.000254595
0.000255281
0.000255975
0.000256605
0.000257249
0.000257826
0.000258425
0.000258951
0.000259508
0.000259985
0.000260506
0.000260933
0.000261423
0.000261791
0.000262269
0.000262533
0.000263061
0.000263028
0.000263862
0.000262266
0.000211333
0.000213889
0.000216318
0.000218606
0.000220786
0.000222846
0.000224819
0.000226691
0.000228494
0.000230206
0.000231861
0.000233433
0.000234957
0.000236404
0.000237811
0.000239145
0.000240445
0.000241675
0.000242879
0.000244014
0.000245129
0.000246176
0.000247208
0.000248174
0.000249131
0.000250021
0.000250909
0.000251728
0.000252551
0.000253305
0.00025407
0.000254762
0.000255474
0.000256109
0.000256772
0.000257352
0.000257972
0.000258501
0.000259081
0.000259561
0.000260106
0.000260539
0.000261051
0.000261446
0.000261913
0.000262295
0.000262658
0.000263097
0.000263074
0.000264233
0.000213885
0.000216308
0.000218586
0.000220729
0.00022276
0.00022469
0.00022653
0.000228294
0.000229982
0.000231605
0.00023316
0.000234658
0.000236096
0.000237484
0.000238816
0.000240103
0.000241338
0.000242535
0.000243681
0.000244793
0.000245856
0.000246888
0.000247874
0.000248833
0.000249747
0.000250638
0.000251483
0.000252311
0.000253092
0.000253861
0.000254582
0.000255296
0.000255959
0.000256622
0.000257231
0.000257846
0.000258404
0.000258974
0.000259485
0.000260014
0.000260479
0.00026097
0.000261394
0.000261852
0.000262242
0.000262665
0.00026307
0.000263356
0.000264114
0.000263134
0.000206322
0.000208675
0.000211053
0.000213417
0.000215697
0.000217918
0.000220089
0.000222204
0.000224263
0.000226263
0.000228205
0.000230088
0.000231912
0.000233678
0.000235384
0.000237033
0.000238623
0.000240158
0.000241633
0.000243057
0.000244421
0.000245738
0.000246995
0.000248208
0.000249361
0.000250476
0.00025153
0.000252552
0.000253511
0.000254446
0.000255315
0.000256167
0.000256951
0.000257727
0.000258429
0.000259135
0.000259761
0.000260403
0.000260956
0.00026154
0.000262025
0.000262559
0.000262983
0.00026347
0.000263862
0.000264278
0.000264748
0.000265127
0.000265592
0.000267474
0.000264006
0.000266866
0.000260303
0.000275221
0.000298524
0.000265454
0.000256735
0.000259104
0.000272614
0.000308651
0.000260188
0.000265247
0.000254877
0.000275206
0.000291884
0.000266499
0.000257614
0.000264235
0.000288091
0.000305004
0.000266528
0.000269081
0.000264149
0.000284422
0.00031444
0.000264398
0.000280683
0.000351614
0.00125895
0.000474307
0.000293419
0.000311859
0.000479509
0.00135353
0.000461508
0.000314182
0.000430157
0.000552846
0.00185078
0.000492082
0.000334767
0.0003967
0.000646818
0.00184947
0.000489283
0.000251589
0.000289522
0.000491752
0.00157957
0.000521749
0.000269295
0.000283973
0.000378551
0.00166798
0.000485291
0.000319413
0.000388127
0.00052717
0.00184526
0.000501809
0.000486381
0.000500088
0.000920707
0.00233537
0.000510307
0.000367077
0.000566905
0.000823925
0.00245917
0.000537085
0.000252817
0.000314242
0.000584469
0.00218421
0.000567354
0.000264456
0.000281249
0.000352527
0.00125891
0.000474324
0.000292112
0.000310867
0.000482276
0.00135426
0.000461853
0.000314134
0.00043036
0.000552988
0.00185147
0.000492061
0.000334572
0.000396381
0.000648013
0.00185062
0.000489377
0.00025066
0.000285927
0.000493802
0.00157983
0.000521806
0.000264155
0.000266628
0.000260331
0.000275369
0.000298376
0.000265433
0.000256868
0.00025914
0.000272678
0.00030871
0.000260268
0.000265201
0.000254932
0.000275322
0.000291953
0.000266415
0.000257749
0.00026429
0.000288254
0.000305613
0.000266481
0.000268952
0.000264177
0.000284374
0.000314437
0.000128223
0.000199527
0.000228779
0.000236216
0.000223823
0.000130172
0.000204932
0.000232352
0.000245387
0.000231897
0.00013102
0.000206512
0.000236883
0.00024588
0.000232149
0.000132776
0.000210772
0.000241522
0.00025173
0.000237217
0.000133865
0.000213408
0.000244935
0.000255022
0.000239943
0.000135677
0.000217614
0.000250045
0.000260421
0.000244557
0.000137009
0.000220841
0.00025401
0.000264478
0.00024789
0.000138904
0.000225188
0.000259307
0.000269996
0.000252561
0.000140476
0.000228954
0.000263877
0.000274666
0.000256354
0.000142488
0.000233546
0.00026944
0.000280423
0.000261163
0.0001443
0.000237834
0.000274596
0.000285668
0.000265368
0.000146467
0.000242763
0.00028051
0.000291738
0.000270349
0.000148525
0.000247579
0.00028624
0.000297533
0.000274922
0.000150884
0.000252926
0.000292572
0.000303968
0.000280083
0.000153201
0.000258291
0.000298871
0.000310285
0.000284965
0.000155787
0.000264128
0.000305669
0.000317107
0.000290281
0.000158383
0.000270079
0.00031253
0.000323906
0.000295393
0.000161232
0.000276468
0.000319816
0.0003311
0.0003008
0.000164125
0.000283038
0.000327218
0.00033831
0.000306022
0.000167268
0.00029003
0.000334983
0.000345808
0.000311401
0.000170486
0.000297248
0.000342879
0.000353303
0.000316559
0.000173965
0.000304868
0.000351068
0.000360959
0.000321724
0.000177569
0.00031273
0.000359364
0.00036853
0.00032658
0.000181508
0.000320943
0.000367865
0.000376089
0.000331265
0.000185818
0.000329341
0.000376414
0.000383397
0.000335505
0.000190392
0.000338079
0.000385068
0.000390443
0.000339375
0.000195119
0.000346978
0.000393702
0.000396961
0.000342634
0.00020002
0.000355998
0.000402383
0.000402843
0.000345332
0.000204878
0.000364724
0.000411105
0.000407758
0.000347286
0.000210333
0.000373421
0.000419334
0.000411694
0.000348252
0.000216698
0.000381877
0.000427008
0.000413847
0.000348722
0.000223668
0.000389926
0.000433886
0.000414697
0.000348736
0.000230723
0.000397307
0.000439665
0.000414571
0.000347764
0.000237767
0.000403797
0.000444114
0.000411043
0.000346674
0.000244508
0.000409103
0.00044606
0.000406186
0.000344679
0.000251215
0.000413397
0.00044683
0.00039828
0.000343312
0.000256706
0.00041548
0.000445281
0.000389088
0.000341211
0.00026179
0.000415959
0.000439943
0.000377737
0.000339952
0.000266074
0.000414148
0.000430904
0.00036465
0.000338073
0.000268985
0.000410842
0.000419768
0.000350466
0.000336987
0.000271723
0.000407465
0.000406509
0.000333885
0.000335093
0.000271732
0.00040688
0.000390304
0.000317931
0.000333728
0.000272197
0.000402539
0.000367886
0.000302497
0.000332248
0.000264878
0.000392813
0.00034096
0.00028931
0.000330984
0.000263558
0.000376997
0.000308129
0.00027717
0.000329231
0.000256202
0.000353337
0.000276296
0.000267741
0.000327656
0.000244321
0.000325178
0.000257107
0.000266232
0.000325539
0.00023727
0.0002969
0.000245309
0.000260885
0.000321858
0.000216932
0.000232122
0.000240679
0.000262931
0.000321899
0.000215848
0.000241176
0.000254235
0.000265221
0.000325104
0.000165919
0.000602847
0.000680264
0.000625849
0.000413341
0.00016933
0.000626633
0.000711455
0.000659121
0.000439411
0.000170966
0.000633476
0.000718205
0.000664828
0.000443184
0.000174049
0.000650963
0.000740091
0.000687871
0.000461177
0.00017607
0.000663656
0.000755534
0.000703101
0.000471961
0.000179202
0.000680506
0.000776169
0.000724711
0.000488671
0.000181673
0.00069567
0.000794836
0.000743407
0.000502063
0.000184916
0.000713342
0.000816425
0.000765901
0.000519154
0.000187808
0.000730559
0.000837683
0.000787454
0.000534721
0.000191249
0.000749637
0.000861016
0.000811665
0.000552774
0.000194546
0.000768915
0.000884825
0.000836025
0.000570419
0.000198264
0.000789821
0.000910424
0.000862554
0.000589865
0.000201971
0.000811319
0.00093696
0.000889892
0.000609622
0.000206037
0.000834368
0.000965259
0.000919261
0.000630858
0.000210182
0.000858343
0.000994819
0.000949888
0.000652842
0.000214661
0.000883926
0.00102623
0.000982597
0.000676196
0.000219287
0.000910751
0.00105918
0.00101691
0.000700555
0.000224245
0.000939339
0.00109411
0.00105346
0.000726274
0.000229405
0.000969396
0.00113079
0.00109188
0.000753167
0.000234908
0.00100129
0.00116968
0.00113266
0.00078142
0.000240661
0.00103491
0.00121073
0.00117551
0.000810744
0.000246774
0.00107052
0.00125422
0.00122075
0.000841215
0.000253179
0.00110805
0.00130013
0.00126802
0.000872485
0.000259962
0.00114768
0.00134868
0.00131763
0.000904406
0.000267076
0.00118933
0.00139981
0.00136914
0.000936503
0.000274565
0.00123308
0.0014536
0.00142253
0.000968276
0.000282386
0.00127881
0.00150988
0.00147727
0.000998813
0.000290565
0.00132654
0.00156846
0.00153305
0.00102716
0.000299099
0.00137626
0.00162889
0.00158902
0.00105192
0.000308232
0.00142835
0.0016904
0.00164441
0.00107164
0.000317988
0.00148191
0.00175232
0.00169776
0.00108442
0.000329159
0.00153636
0.0018139
0.0017474
0.00108791
0.000341018
0.0015908
0.00187352
0.00179127
0.00107927
0.000353126
0.0016441
0.00192921
0.00182691
0.0010756
0.00036526
0.00169502
0.00197858
0.00184928
0.00104068
0.000377286
0.00174193
0.00201886
0.00184501
0.00101062
0.000388911
0.00178374
0.00205029
0.00182833
0.000965952
0.000399764
0.00181748
0.00206861
0.00181165
0.000921324
0.000409449
0.00183816
0.00206279
0.0017138
0.00086852
0.000417389
0.00184483
0.0020303
0.00162708
0.000820183
0.000423877
0.00183996
0.00199755
0.00149322
0.00076882
0.00042473
0.00181164
0.0019373
0.00134559
0.000728318
0.000422374
0.00175116
0.00182393
0.00117456
0.000693535
0.000411646
0.00165976
0.00167095
0.00102104
0.000677131
0.000396086
0.00152146
0.00145998
0.00085813
0.000664842
0.000374024
0.00132372
0.00119015
0.000733548
0.0006672
0.000346551
0.00112606
0.000873155
0.000640907
0.000677675
0.000321735
0.000929767
0.000539079
0.000623056
0.000700696
0.00027518
0.000484357
0.000368432
0.000606562
0.000731169
0.000235479
0.000275662
0.000323069
0.00098256
0.000620155
0.000174218
0.00069786
0.000811029
0.000744385
0.000465428
0.000177873
0.000725461
0.00084684
0.00078136
0.00049372
0.000179647
0.00073387
0.000855251
0.000788577
0.000498109
0.000182937
0.000754098
0.000880356
0.000814146
0.000517743
0.000185119
0.000769273
0.000898731
0.000831811
0.00052988
0.000188448
0.000788832
0.000922474
0.000855863
0.000548174
0.00019111
0.000806819
0.000944462
0.000877312
0.000563257
0.000194546
0.000827408
0.000969417
0.000902445
0.000582035
0.000197648
0.000847716
0.000994286
0.000926975
0.000599548
0.000201287
0.000869978
0.00102131
0.00095409
0.000619486
0.000204808
0.000892614
0.00104904
0.000981659
0.000639315
0.000208736
0.000916978
0.00107868
0.00101138
0.000660918
0.00021268
0.000942132
0.00110948
0.00104218
0.000683098
0.00021697
0.000968984
0.00114218
0.00107504
0.000706769
0.000221366
0.000996972
0.00117636
0.00110942
0.000731414
0.000226087
0.00102671
0.00121252
0.00114592
0.000757469
0.000230982
0.00105789
0.00125042
0.0011843
0.00078479
0.000236203
0.00109097
0.00129038
0.00122498
0.000813668
0.000241655
0.00112581
0.00133264
0.00126783
0.000844155
0.000247448
0.00116274
0.00137735
0.00131312
0.000876244
0.00025352
0.00120173
0.00142431
0.00136075
0.000910008
0.000259948
0.00124305
0.00147379
0.00141101
0.000945382
0.00026668
0.00128656
0.00152592
0.00146387
0.000982305
0.00027378
0.00133243
0.00158077
0.00151916
0.00102056
0.000281227
0.00138064
0.00163832
0.00157671
0.00105986
0.00028905
0.00143121
0.00169856
0.00163633
0.00109969
0.000297227
0.00148404
0.00176134
0.00169753
0.00113934
0.00030578
0.00153905
0.00182642
0.00175981
0.00117778
0.000314696
0.00159605
0.00189339
0.00182226
0.00121365
0.00032401
0.00165474
0.00196167
0.00188382
0.00124528
0.000333941
0.00171433
0.00203047
0.00194292
0.00127063
0.000345815
0.0017741
0.00209864
0.00199778
0.00128777
0.000358269
0.00183311
0.00216431
0.00204594
0.00128543
0.000370916
0.00189089
0.00222464
0.00208618
0.00128301
0.000383586
0.00194565
0.00227766
0.00211329
0.00127367
0.000396065
0.00199529
0.00232089
0.002123
0.00122879
0.000408166
0.00203802
0.00235179
0.00210049
0.00119184
0.000419372
0.00207177
0.00237067
0.00207978
0.00113455
0.000429472
0.00209108
0.00236704
0.00202072
0.00107448
0.000437409
0.0020925
0.00233028
0.00192231
0.00100725
0.000444191
0.00207953
0.00228279
0.00180649
0.000943589
0.000445215
0.00204707
0.00222482
0.00165894
0.00087927
0.000442738
0.00197577
0.00208671
0.00147609
0.000830299
0.000433462
0.00186658
0.0019184
0.00128368
0.000791562
0.000415152
0.00169625
0.00166218
0.00109278
0.000773563
0.000390554
0.00145676
0.0013283
0.000917144
0.000766759
0.000360102
0.00121262
0.000927115
0.000799081
0.000773603
0.00033113
0.000987332
0.000558036
0.000750696
0.000801065
0.000283737
0.000489639
0.000382515
0.000753901
0.000835527
0.000237744
0.000270202
0.000325029
0.00136338
0.000680663
0.000165918
0.000602844
0.00068026
0.000625843
0.000413327
0.000169329
0.000626623
0.000711451
0.000659116
0.000439398
0.000170965
0.000633472
0.000718196
0.000664817
0.000443164
0.000174048
0.000650957
0.000740093
0.00068787
0.000461167
0.000176069
0.000663653
0.000755526
0.00070309
0.000471941
0.000179201
0.0006805
0.000776168
0.000724706
0.000488658
0.000181673
0.000695666
0.000794831
0.000743398
0.000502044
0.000184916
0.000713337
0.000816421
0.000765894
0.000519138
0.000187808
0.000730555
0.000837679
0.000787446
0.000534703
0.000191249
0.000749633
0.000861012
0.000811656
0.000552756
0.000194546
0.00076891
0.00088482
0.000836015
0.0005704
0.000198264
0.000789816
0.000910419
0.000862543
0.000589846
0.000201971
0.000811314
0.000936954
0.000889881
0.000609602
0.000206037
0.000834363
0.000965253
0.000919249
0.000630837
0.000210182
0.000858338
0.000994813
0.000949875
0.000652821
0.000214661
0.00088392
0.00102623
0.000982583
0.000676174
0.000219287
0.000910745
0.00105917
0.0010169
0.000700533
0.000224245
0.000939332
0.0010941
0.00105344
0.000726251
0.000229406
0.000969389
0.00113079
0.00109186
0.000753144
0.000234909
0.00100129
0.00116967
0.00113264
0.000781396
0.000240662
0.0010349
0.00121072
0.00117549
0.000810721
0.000246775
0.00107051
0.00125422
0.00122074
0.000841192
0.000253181
0.00110804
0.00130012
0.00126801
0.000872465
0.000259964
0.00114767
0.00134868
0.00131762
0.000904389
0.000267078
0.00118933
0.00139981
0.00136913
0.000936492
0.000274568
0.00123308
0.0014536
0.00142254
0.000968273
0.000282389
0.00127881
0.00150988
0.00147727
0.000998824
0.000290569
0.00132655
0.00156847
0.00153307
0.00102719
0.000299104
0.00137627
0.0016289
0.00158905
0.00105198
0.000308238
0.00142836
0.00169042
0.00164446
0.00107174
0.000317995
0.00148193
0.00175236
0.00169783
0.00108458
0.000329166
0.00153639
0.00181395
0.00174749
0.00108815
0.000341026
0.00159083
0.00187358
0.00179138
0.00107954
0.000353134
0.00164414
0.00192926
0.00182704
0.00107593
0.00036527
0.00169507
0.00197868
0.00184945
0.00104119
0.000377296
0.00174198
0.00201894
0.0018452
0.00101121
0.00038892
0.00178379
0.00205037
0.00182854
0.000966703
0.000399774
0.00181753
0.00206869
0.00181188
0.000922193
0.000409457
0.0018382
0.00206286
0.00171406
0.000869555
0.000417395
0.00184486
0.00203034
0.00162727
0.000821413
0.000423882
0.00183998
0.00199757
0.00149339
0.000770248
0.000424731
0.00181163
0.00193727
0.00134571
0.000730002
0.000422372
0.00175114
0.00182387
0.00117467
0.000695701
0.000411645
0.00165974
0.00167088
0.00102107
0.000677034
0.000396077
0.00152144
0.00145999
0.000858169
0.000667428
0.00037402
0.0013237
0.00119011
0.00073365
0.000665581
0.000346459
0.00112599
0.000873062
0.000640842
0.000678554
0.000321759
0.000929577
0.000539125
0.00062308
0.000700207
0.000274946
0.000484226
0.000368706
0.000606673
0.000731369
0.000235282
0.000275486
0.00032352
0.000982575
0.000619924
0.000128224
0.000199528
0.000228775
0.000236211
0.000223818
0.000130173
0.000204927
0.000232349
0.000245382
0.000231893
0.000131021
0.000206511
0.000236878
0.000245873
0.000232142
0.000132777
0.000210771
0.000241522
0.000251729
0.000237217
0.000133866
0.000213407
0.000244931
0.000255015
0.000239935
0.000135678
0.000217613
0.000250043
0.000260419
0.000244556
0.00013701
0.000220841
0.000254007
0.000264472
0.000247885
0.000138905
0.000225187
0.000259305
0.000269993
0.00025256
0.000140477
0.000228953
0.000263874
0.000274662
0.000256351
0.000142489
0.000233545
0.000269438
0.000280419
0.000261161
0.000144301
0.000237833
0.000274593
0.000285665
0.000265367
0.000146468
0.000242763
0.000280508
0.000291735
0.000270348
0.000148527
0.000247578
0.000286238
0.000297531
0.000274922
0.000150885
0.000252925
0.00029257
0.000303966
0.000280083
0.000153202
0.000258291
0.00029887
0.000310284
0.000284967
0.000155788
0.000264128
0.000305668
0.000317106
0.000290284
0.000158385
0.000270078
0.000312529
0.000323906
0.000295397
0.000161233
0.000276468
0.000319816
0.0003311
0.000300806
0.000164126
0.000283038
0.000327219
0.000338311
0.000306029
0.000167269
0.00029003
0.000334984
0.00034581
0.00031141
0.000170488
0.000297248
0.000342881
0.000353306
0.000316571
0.000173966
0.000304869
0.00035107