/*--------------------------------*- C++ -*----------------------------------*\
| =========                 |                                                 |
| \\      /  F ield         | OpenFOAM: The Open Source CFD Toolbox           |
|  \\    /   O peration     | Version:                                        |
|   \\  /    A nd           | Website:  www.openfoam.com                      |
|    \\/     M anipulation  |                                                 |
\*---------------------------------------------------------------------------*/
FoamFile
{
    version     2.0;
    format      ascii;
    class       volScalarField;
    location    "1.5";
    object      p;
}
// * * * * * * * * * * * * * * * * * * * * * * * * * * * * * * * * * * * * * //

dimensions      [0 2 -2 0 0 0 0];


internalField   nonuniform List<scalar> 
4375
(
12.7003
11.1904
10.3164
10.0548
9.93774
9.80315
9.6683
9.55063
9.44496
9.34383
9.24478
9.14737
9.05137
8.95631
8.8619
8.76782
8.67384
8.57979
8.48637
8.39321
8.30027
8.20729
8.11443
8.02139
7.92842
7.83519
7.74205
7.64864
7.55539
7.46178
7.36834
7.27448
7.18089
7.08681
6.99318
6.89901
6.80563
6.71184
6.61966
6.52793
6.44035
6.35682
6.28491
6.22671
6.19809
6.20181
6.26601
6.3614
6.41359
6.40241
10.2399
9.97976
9.77859
9.65794
9.5846
9.50876
9.42733
9.34762
9.27027
9.19303
9.11468
9.03497
8.95405
8.87199
8.78884
8.70464
8.61966
8.5341
8.44753
8.35999
8.2717
8.18275
8.09323
8.0032
7.91268
7.82173
7.73032
7.63871
7.54676
7.45461
7.36209
7.26944
7.17642
7.08337
6.98993
6.89662
6.80296
6.70975
6.61641
6.52442
6.43339
6.34666
6.26497
6.19651
6.14884
6.139
6.21466
6.42603
6.98203
8.21982
11.0492
10.5022
10.2269
10.0965
9.98869
9.87312
9.75316
9.6351
9.52139
9.41148
9.30486
9.20053
9.09811
8.99728
8.8978
8.7993
8.70151
8.60393
8.50714
8.41109
8.31567
8.22063
8.12593
8.0314
7.93707
7.84275
7.74853
7.65431
7.56016
7.46597
7.37181
7.27757
7.18333
7.08897
6.99457
6.90002
6.80536
6.71055
6.61551
6.52033
6.42507
6.32974
6.23549
6.14179
6.05832
5.99157
5.99606
6.15651
6.83405
8.36646
10.2393
9.97898
9.77748
9.65878
9.58487
9.50884
9.42736
9.3476
9.27027
9.19303
9.1147
9.03498
8.95406
8.87197
8.78882
8.70461
8.61965
8.5341
8.44755
8.36
8.27173
8.18275
8.09326
8.00319
7.91271
7.82171
7.73036
7.63868
7.5468
7.45456
7.36211
7.2693
7.17633
7.08297
6.98945
6.89543
6.80116
6.70609
6.61044
6.5132
6.4144
6.31172
6.2041
6.08593
5.95392
5.79942
5.62265
5.45078
5.39756
6.24746
12.6997
11.19
10.316
10.0552
9.93794
9.80326
9.6683
9.55061
9.44492
9.34384
9.24479
9.14741
9.05137
8.95631
8.86184
8.7678
8.6738
8.57981
8.48636
8.39326
8.30028
8.20735
8.11441
8.02145
7.9284
7.83526
7.742
7.64872
7.55532
7.46184
7.36819
7.27444
7.18051
7.08644
6.99208
6.89747
6.80231
6.70653
6.60949
6.51077
6.40876
6.3016
6.18531
6.04928
5.88593
5.65133
5.31059
4.68077
3.45872
1.2046
10.2398
9.97892
9.77747
9.65909
9.58471
9.50871
9.42732
9.34761
9.27028
9.19302
9.11468
9.03496
8.95406
8.87198
8.78885
8.70462
8.61967
8.53411
8.44754
8.35998
8.27171
8.18274
8.09325
8.00318
7.9127
7.82169
7.73038
7.63867
7.54683
7.45455
7.36218
7.26938
7.17657
7.08334
6.99023
6.89677
6.8037
6.71055
6.61847
6.52737
6.4397
6.35692
6.28441
6.2267
6.19671
6.20173
6.25558
6.32416
6.2788
6.15947
7.77044
8.80425
9.14613
9.17781
9.1939
9.20099
9.18358
9.14793
9.10289
9.05149
8.99408
8.9316
8.86507
8.79527
8.72259
8.64744
8.5701
8.49095
8.41004
8.32761
8.24377
8.15878
8.07267
7.98567
7.89778
7.80929
7.72011
7.6303
7.53976
7.44887
7.35735
7.26561
7.17329
7.08091
6.98796
6.89515
6.80184
6.70901
6.61593
6.5243
6.43351
6.347
6.26578
6.19769
6.15084
6.14004
6.21038
6.40488
6.94138
8.0452
8.45836
9.25953
9.6094
9.62697
9.59198
9.55604
9.4998
9.42612
9.3461
9.2641
9.17973
9.09349
9.00628
8.91838
8.82997
8.74101
8.6516
8.56171
8.47151
8.38099
8.29021
8.19912
8.10775
8.0161
7.92425
7.83218
7.73987
7.64721
7.55428
7.46118
7.36789
7.27453
7.18092
7.08725
6.99327
6.89928
6.80489
6.71053
6.61558
6.52077
6.42543
6.33085
6.23608
6.14538
6.05922
5.9967
5.99502
6.14143
6.77672
8.26967
7.76858
8.80188
9.14105
9.18168
9.19413
9.20104
9.18367
9.14793
9.1029
9.05149
8.9941
8.93161
8.86509
8.79526
8.72259
8.64741
8.5701
8.49094
8.41007
8.32761
8.24381
8.15878
8.0727
7.98566
7.89782
7.80927
7.72016
7.63026
7.5398
7.4488
7.35738
7.26546
7.17321
7.08051
6.98751
6.89399
6.80009
6.70539
6.60995
6.51296
6.41413
6.31156
6.20287
6.08632
5.95076
5.79916
5.61936
5.43156
5.33102
6.0829
10.2394
9.97897
9.77747
9.65879
9.58486
9.50883
9.42734
9.34759
9.27025
9.19303
9.11469
9.03499
8.95406
8.87198
8.78881
8.70461
8.61963
8.53413
8.44754
8.36003
8.27172
8.18279
8.09324
8.00323
7.91269
7.82175
7.73034
7.63873
7.54677
7.45459
7.36206
7.26932
7.17623
7.08292
6.98921
6.89516
6.8005
6.70514
6.60845
6.50991
6.40827
6.29992
6.18378
6.0467
5.8843
5.6518
5.30903
4.66366
3.36766
0.852883
11.0491
10.5005
10.2215
10.1013
9.98873
9.87295
9.75317
9.63509
9.52139
9.41146
9.30485
9.20052
9.09811
8.99727
8.89781
8.7993
8.70152
8.60393
8.50715
8.41108
8.31569
8.22061
8.12594
8.03138
7.93709
7.84274
7.74857
7.65429
7.56021
7.46594
7.3719
7.27759
7.18352
7.08915
6.9951
6.90076
6.80698
6.71315
6.62051
6.52888
6.44076
6.3574
6.28447
6.22695
6.19415
6.20152
6.24626
6.298
6.253
5.94684
8.45934
9.26178
9.6091
9.62783
9.5918
9.55597
9.49976
9.4261
9.34607
9.2641
9.17971
9.0935
9.00627
8.91839
8.82996
8.74102
8.65159
8.56173
8.4715
8.381
8.2902
8.19913
8.10774
8.01611
7.92423
7.83221
7.73985
7.64724
7.55427
7.4612
7.3679
7.27459
7.18097
7.08742
6.99351
6.89982
6.80577
6.71227
6.61858
6.52639
6.43512
6.3483
6.26649
6.19824
6.14956
6.14095
6.20344
6.40098
6.88367
7.95524
9.1139
9.74552
10.0823
10.1275
9.99113
9.88594
9.7906
9.68095
9.56695
9.45473
9.34426
9.23559
9.12912
9.02469
8.92203
8.82074
8.72066
8.62145
8.523
8.4252
8.32808
8.23147
8.13534
8.03947
7.94375
7.84824
7.75313
7.65818
7.5634
7.46872
7.37418
7.27966
7.18515
7.09059
6.99596
6.90127
6.8064
6.71146
6.61619
6.5209
6.4254
6.33022
6.23562
6.14364
6.05888
5.99424
5.98653
6.1465
6.68151
8.25675
8.45836
9.25955
9.60941
9.62696
9.59197
9.55602
9.49977
9.42609
9.34607
9.2641
9.17973
9.09351
9.00628
8.91838
8.82995
8.741
8.65159
8.56172
8.47152
8.38101
8.29023
8.19913
8.10776
8.01611
7.92426
7.83219
7.73989
7.64722
7.55431
7.46114
7.36792
7.27443
7.18089
7.08701
6.99305
6.89862
6.80401
6.70854
6.61258
6.51472
6.4157
6.31199
6.20447
6.08454
5.95344
5.79646
5.61695
5.41103
5.31379
5.72941
11.0492
10.5022
10.2269
10.0965
9.98867
9.8731
9.75312
9.63506
9.52135
9.41147
9.30486
9.20055
9.09811
8.99728
8.89777
8.79929
8.70149
8.60395
8.50716
8.41113
8.31569
8.22066
8.12594
8.03143
7.93708
7.84279
7.74855
7.65433
7.56017
7.46597
7.37179
7.2775
7.1832
7.0887
6.9941
6.89911
6.80377
6.70763
6.61045
6.5112
6.40878
6.30079
6.1826
6.04901
5.88066
5.66084
5.30448
4.69281
3.3921
0.805302
10.2403
9.97975
9.77849
9.65814
9.58443
9.50861
9.42723
9.34755
9.27024
9.193
9.11468
9.03496
8.95406
8.87198
8.78884
8.70462
8.61966
8.53412
8.44756
8.36
8.27173
8.18275
8.09326
8.00319
7.91271
7.8217
7.7304
7.63868
7.54684
7.45457
7.36219
7.26939
7.17657
7.08334
6.99021
6.89674
6.80365
6.71048
6.61837
6.52724
6.43947
6.35636
6.28386
6.2249
6.19592
6.19898
6.25621
6.32612
6.28934
6.13169
7.77228
8.80674
9.1509
9.17347
9.19353
9.20089
9.18344
9.14787
9.10286
9.05148
8.99408
8.93161
8.86508
8.79528
8.72259
8.64744
8.5701
8.49096
8.41006
8.32763
8.24379
8.1588
8.07268
7.98568
7.8978
7.80931
7.72012
7.63031
7.53977
7.44888
7.35736
7.26561
7.17329
7.0809
6.98795
6.89512
6.80179
6.70894
6.61584
6.52418
6.43333
6.34666
6.26516
6.19686
6.14975
6.13963
6.21008
6.4051
6.94168
8.09102
8.45934
9.2618
9.6091
9.62783
9.59179
9.55594
9.49974
9.42606
9.34606
9.26409
9.17973
9.0935
9.00628
8.91838
8.82996
8.74101
8.6516
8.56172
8.47152
8.38101
8.29022
8.19913
8.10776
8.01611
7.92426
7.8322
7.73988
7.64722
7.55429
7.46119
7.3679
7.27453
7.18091
7.08723
6.99325
6.89925
6.80484
6.71047
6.6155
6.52068
6.4253
6.33065
6.23577
6.14488
6.05879
5.99653
5.99542
6.14465
6.78605
8.28591
7.77047
8.80432
9.14617
9.17777
9.19388
9.20095
9.18353
9.14786
9.10286
9.05147
8.9941
8.93161
8.86509
8.79526
8.72259
8.64741
8.57011
8.49095
8.41008
8.32762
8.24382
8.15879
8.07272
7.98567
7.89783
7.80928
7.72018
7.63027
7.53982
7.44882
7.35739
7.26546
7.17321
7.08049
6.98749
6.89395
6.80005
6.70534
6.60989
6.51289
6.41405
6.31144
6.20269
6.08607
5.95055
5.79918
5.62004
5.43457
5.33584
6.08879
10.2399
9.97983
9.7786
9.65792
9.58457
9.50873
9.42725
9.34755
9.27022
9.19301
9.11469
9.03499
8.95406
8.87198
8.78881
8.70461
8.61964
8.53414
8.44755
8.36005
8.27173
8.1828
8.09326
8.00324
7.91271
7.82177
7.73036
7.63874
7.54679
7.45461
7.36207
7.26932
7.17622
7.08291
6.98919
6.89514
6.80046
6.70509
6.60839
6.50986
6.4082
6.29982
6.18366
6.04655
5.88417
5.65195
5.30949
4.66462
3.36876
0.852983
12.7006
11.1911
10.3168
10.0543
9.93754
9.803
9.66819
9.55055
9.4449
9.34381
9.24478
9.14738
9.05138
8.95631
8.86188
8.7678
8.67384
8.5798
8.48639
8.39324
8.3003
8.20732
8.11445
8.02141
7.92844
7.83521
7.74207
7.64867
7.55541
7.4618
7.36836
7.27449
7.18089
7.0868
6.99315
6.89896
6.80555
6.71172
6.61949
6.52771
6.44004
6.35624
6.28393
6.22471
6.19642
6.20029
6.26142
6.35625
6.39611
6.32022
10.2402
9.97982
9.77849
9.65814
9.58441
9.5086
9.42721
9.34754
9.27022
9.19301
9.11468
9.03498
8.95406
8.87199
8.78883
8.70463
8.61966
8.53412
8.44756
8.36002
8.27173
8.18277
8.09325
8.00322
7.9127
7.82175
7.73035
7.63874
7.54679
7.45463
7.36211
7.26945
7.17642
7.08336
6.9899
6.89657
6.80288
6.70964
6.61625
6.52423
6.43312
6.34621
6.2642
6.19534
6.14754
6.13812
6.21248
6.4299
6.99012
8.30469
11.0491
10.5006
10.2215
10.1013
9.98871
9.87291
9.75312
9.63503
9.52135
9.41146
9.30486
9.20054
9.09812
8.99728
8.89779
8.7993
8.70151
8.60394
8.50716
8.41112
8.3157
8.22065
8.12595
8.03142
7.93709
7.84278
7.74855
7.65433
7.56019
7.46599
7.37182
7.27758
7.18333
7.08896
6.99453
6.89997
6.80529
6.71045
6.61538
6.52018
6.42487
6.32942
6.23502
6.14112
6.05769
5.99134
5.99677
6.16314
6.85146
8.39555
10.2397
9.97908
9.77748
9.65905
9.58469
9.50867
9.42725
9.34753
9.27023
9.193
9.11469
9.03499
8.95407
8.87197
8.78882
8.70461
8.61966
8.53412
8.44757
8.36002
8.27175
8.18278
8.09328
8.00322
7.91274
7.82174
7.73039
7.63871
7.54683
7.45458
7.36212
7.2693
7.17632
7.08295
6.98941
6.89538
6.80109
6.70601
6.61033
6.51308
6.41427
6.31153
6.20379
6.08553
5.95357
5.79952
5.62398
5.45507
5.40542
6.25689
12.7001
11.1907
10.3164
10.0548
9.93771
9.80311
9.6682
9.55054
9.44488
9.34382
9.24478
9.14741
9.05137
8.95631
8.86185
8.7678
8.67381
8.57983
8.48639
8.39328
8.3003
8.20737
8.11444
8.02147
7.92842
7.83528
7.74203
7.64875
7.55535
7.46186
7.36821
7.27445
7.1805
7.08643
6.99205
6.89743
6.80224
6.70645
6.6094
6.51068
6.40866
6.30146
6.1851
6.04899
5.88573
5.6516
5.31166
4.68335
3.4618
1.20796
6.01967
9.63031
16.4329
23.5619
27.1202
11.091
16.2719
23.1358
28.7063
32.1484
11.6876
16.8452
23.8529
29.776
33.8308
8.27931
13.8522
21.397
26.9403
30.4908
-2.68819
2.67825
11.9546
20.0496
23.028
5.29106
9.63164
16.398
23.7173
28.3422
10.8708
16.1221
23.0074
29.2436
33.2168
11.5259
16.7999
23.9198
30.3101
34.7982
8.09748
13.7458
21.3481
27.3943
31.439
-3.53864
2.86331
12.0647
20.2723
24.25
5.03249
9.79224
16.6208
24.0219
28.8672
10.8596
16.146
23.1371
29.5558
33.675
11.5196
16.844
24.0455
30.5679
35.1851
8.20148
13.7598
21.4162
27.5835
31.8555
-3.62912
3.30777
12.3253
20.4876
24.6569
5.25117
9.62617
16.3959
23.7156
28.3401
10.8747
16.1215
23.0053
29.2418
33.215
11.5309
16.7982
23.9175
30.3089
34.7976
8.09802
13.7447
21.3468
27.3933
31.4384
-3.53725
2.8612
12.0645
20.2717
24.2494
5.96853
9.59186
16.425
23.5605
27.1158
11.0798
16.2655
23.132
28.7036
32.1463
11.6933
16.8441
23.8493
29.7738
33.83
8.28177
13.8544
21.3955
26.9376
30.4893
-2.68771
2.67828
11.9554
20.0486
23.0275
10.0075
10.0025
10.0002
10.0004
9.99715
10.0091
10.0038
10.0023
10.0039
10.0005
10.0101
10.0048
10.0022
10.0012
9.99699
10.0095
10.0037
9.9999
9.99842
9.99284
10.0071
10.0008
9.99617
9.99363
9.98685
10.0027
9.99588
9.99055
9.98751
9.97957
9.99617
9.98882
9.98279
9.9791
9.97024
9.98722
9.97933
9.97269
9.96856
9.95867
9.97566
9.96723
9.95988
9.95519
9.9443
9.96116
9.95214
9.94411
9.93896
9.92692
9.94341
9.93376
9.9249
9.91914
9.90589
9.92197
9.91164
9.90195
9.89562
9.88098
9.8964
9.88532
9.87465
9.86757
9.85141
9.86615
9.85426
9.84256
9.83476
9.81684
9.83058
9.81781
9.8049
9.79617
9.77629
9.78898
9.77523
9.76106
9.75136
9.72923
9.74048
9.72565
9.70999
9.69911
9.67447
9.68411
9.66807
9.6508
9.6387
9.61125
9.61869
9.60131
9.58217
9.56862
9.53803
9.54287
9.52401
9.50284
9.48777
9.45361
9.45505
9.43454
9.41107
9.39423
9.356
9.35336
9.33102
9.30503
9.28632
9.24351
9.23551
9.21113
9.18232
9.16152
9.11359
9.09883
9.07224
9.04037
9.01739
8.96384
8.94014
8.91116
8.87594
8.85061
8.79089
8.75571
8.72422
8.68553
8.65792
8.59137
8.54121
8.50707
8.46479
8.43511
8.36098
8.29189
8.25492
8.20898
8.17779
8.09533
8.00232
7.96219
7.91237
7.88047
7.78926
7.665
7.62219
7.56865
7.53749
7.43733
7.27211
7.2265
7.17017
7.14234
7.03326
6.81553
6.76709
6.70917
6.68869
6.57062
6.28716
6.2358
6.17772
6.17101
6.04369
5.67813
5.62413
5.56836
5.58467
5.44715
4.98167
4.9252
4.8744
4.92377
4.76723
4.19241
4.13307
4.09015
4.18334
4.01333
3.30942
3.24696
3.21474
3.36774
3.18154
2.33757
2.26997
2.25151
2.48183
2.28871
1.28901
1.21583
1.21058
1.5311
1.3431
0.186201
0.102769
0.109799
0.529822
0.378139
-0.938871
-1.03531
-1.01638
-0.486476
-0.575043
-2.03793
-2.16223
-2.12537
-1.47882
-1.46225
-3.05667
-3.21785
-3.15933
-2.39515
-2.22067
-3.91139
-4.12708
-4.03199
-3.1355
-2.69959
-4.55217
-4.83083
-4.60965
-3.4957
-2.6603
-4.81278
-5.20558
-4.73163
-3.23307
-2.07274
-4.71948
-5.20919
-4.41584
-2.11858
-0.262162
-4.47745
-4.86302
-3.81789
0.0763653
3.98078
-4.25007
-4.27833
-2.4791
3.98656
10.3508
-3.97665
-1.63698
4.27688
12.3373
17.1468
10.0069
10.0012
9.99819
9.99463
9.98791
10.0086
10.0017
9.99746
9.99348
9.98595
10.01
10.0029
9.9969
9.99078
9.98141
10.0094
10.0015
9.99431
9.98699
9.97593
10.0071
9.99864
9.99044
9.98164
9.96898
10.0027
9.9935
9.98442
9.97464
9.96048
9.9962
9.98641
9.97641
9.96545
9.94986
9.98725
9.97677
9.9659
9.95388
9.93681
9.97574
9.9646
9.95275
9.93953
9.92088
9.96126
9.94936
9.93652
9.92208
9.90171
9.94356
9.93088
9.9169
9.90105
9.87882
9.92215
9.9086
9.89342
9.87609
9.85181
9.89664
9.88215
9.86561
9.84658
9.82005
9.86642
9.85089
9.83289
9.81202
9.783
9.83091
9.81427
9.7946
9.77163
9.73983
9.78934
9.77145
9.74997
9.72469
9.68985
9.74089
9.72163
9.69809
9.67019
9.63208
9.68453
9.66373
9.63789
9.60711
9.56559
9.61913
9.59662
9.56815
9.53406
9.48893
9.54328
9.51887
9.48751
9.44986
9.40048
9.45537
9.42889
9.39429
9.35271
9.29838
9.35349
9.3247
9.28654
9.24064
9.18082
9.23542
9.20404
9.1619
9.11126
9.04526
9.09848
9.0642
9.01767
8.96195
8.88909
8.93949
8.902
8.85068
8.78953
8.70891
8.75474
8.71371
8.65723
8.59051
8.50104
8.53986
8.49491
8.43285
8.36036
8.26139
8.28979
8.24051
8.17246
8.09416
7.98549
7.99866
7.94457
7.87025
7.78656
7.66785
7.66074
7.60052
7.5199
7.43182
7.30283
7.26769
7.20123
7.11425
7.02351
6.88419
6.81063
6.73796
6.64547
6.5556
6.40542
6.28162
6.20255
6.10565
6.02166
5.86051
5.6726
5.58701
5.48734
5.41599
5.24478
4.977
4.88512
4.78499
4.73598
4.55401
4.19012
4.09229
3.99551
3.9801
3.786
3.31097
3.20791
3.11883
3.1525
2.94581
2.34524
2.23667
2.15873
2.26383
2.04836
1.30625
1.19377
1.13112
1.32624
1.1041
0.216181
0.0998115
0.053769
0.358156
0.135749
-0.897243
-1.01773
-1.04607
-0.606207
-0.823964
-1.99384
-2.12377
-2.12777
-1.52694
-1.72304
-3.01796
-3.16453
-3.1446
-2.35651
-2.46492
-3.8911
-4.07573
-4.02774
-2.99705
-2.88249
-4.54066
-4.78213
-4.66126
-3.33397
-2.83101
-4.85535
-5.17858
-4.88102
-3.19999
-2.18982
-4.83012
-5.20595
-4.60044
-2.31598
-0.3408
-4.67372
-4.89407
-3.89214
-0.247208
3.89932
-4.5772
-4.19553
-2.28426
3.84532
10.5096
-5.03823
-1.15414
4.39396
12.4264
17.6873
10.0093
10.0046
10.0021
10.0004
9.99622
10.0107
10.0046
10.0012
9.99919
9.9949
10.012
10.0056
10.0007
9.99699
9.9914
10.0113
10.0042
9.99817
9.99341
9.98693
10.0091
10.0015
9.99449
9.98867
9.98061
10.0048
9.99648
9.98867
9.98189
9.97299
9.99836
9.98953
9.98088
9.97327
9.9631
9.98951
9.98005
9.9706
9.96221
9.951
9.9781
9.96803
9.95767
9.94837
9.93595
9.96372
9.95296
9.9417
9.93152
9.91783
9.94614
9.93466
9.92234
9.91108
9.89598
9.92485
9.91256
9.89914
9.88677
9.87012
9.89947
9.88631
9.87161
9.85792
9.83952
9.86938
9.85525
9.83918
9.82408
9.80375
9.83401
9.81884
9.80119
9.78442
9.76196
9.79259
9.77623
9.75686
9.73829
9.71353
9.74428
9.72663
9.70528
9.68458
9.6572
9.68808
9.66897
9.64541
9.62232
9.59212
9.62282
9.60209
9.57599
9.55015
9.51681
9.5471
9.52456
9.49565
9.46683
9.42978
9.45927
9.43474
9.40271
9.37052
9.32917
9.35746
9.33066
9.29519
9.25926
9.21309
9.23945
9.2101
9.17074
9.13064
9.07907
9.10257
9.07038
9.02668
8.98202
8.92445
8.94361
8.90829
8.85982
8.8102
8.74584
8.75887
8.72007
8.66645
8.61161
8.5396
8.54397
8.50131
8.44204
8.38166
8.3017
8.29382
8.24685
8.18145
8.11539
8.02759
8.00245
7.9507
7.87878
7.80738
7.71179
7.66357
7.60631
7.52765
7.45173
7.34873
7.26988
7.20652
7.1209
7.042
6.93221
6.81256
6.74282
6.65073
6.57192
6.45611
6.28341
6.20705
6.10925
6.03514
5.91426
5.67459
5.59139
5.48906
5.426
5.30116
4.97958
4.88964
4.78432
4.74069
4.61476
4.19409
4.09773
3.99238
3.97983
3.85224
3.31735
3.21518
3.11383
3.14618
3.017
2.35543
2.24758
2.15282
2.24924
2.12401
1.32135
1.20933
1.12475
1.30877
1.18769
0.236324
0.123957
0.0513065
0.343854
0.224024
-0.872519
-0.988638
-1.04525
-0.613657
-0.727852
-1.96697
-2.08804
-2.12347
-1.51426
-1.60927
-2.99044
-3.12622
-3.13378
-2.30461
-2.31695
-3.8791
-4.03683
-4.01414
-2.88273
-2.69836
-4.53585
-4.75066
-4.65866
-3.17274
-2.62514
-4.85861
-5.16106
-4.90122
-3.04193
-1.96682
-4.84843
-5.18898
-4.6303
-2.20916
-0.130858
-4.70406
-4.88365
-3.89926
-0.165461
4.08816
-4.63834
-4.0579
-2.14313
4.02412
10.7789
-5.45658
-0.75609
4.77523
12.7439
18.0775
10.0069
10.0012
9.99819
9.99462
9.98791
10.0085
10.0017
9.99745
9.99347
9.98594
10.01
10.0029
9.99689
9.99078
9.9814
10.0094
10.0015
9.9943
9.98699
9.97593
10.0071
9.99864
9.99044
9.98164
9.96898
10.0027
9.9935
9.98442
9.97464
9.96048
9.9962
9.98641
9.97641
9.96544
9.94986
9.98725
9.97677
9.9659
9.95388
9.93681
9.97574
9.9646
9.95274
9.93953
9.92088
9.96126
9.94936
9.93652
9.92208
9.90171
9.94356
9.93088
9.9169
9.90105
9.87882
9.92215
9.9086
9.89342
9.87609
9.85182
9.89664
9.88215
9.86561
9.84658
9.82006
9.86642
9.85089
9.83289
9.81203
9.783
9.83092
9.81427
9.7946
9.77163
9.73984
9.78935
9.77145
9.74997
9.7247
9.68986
9.74089
9.72163
9.69809
9.67019
9.63209
9.68454
9.66373
9.6379
9.60711
9.5656
9.61913
9.59662
9.56815
9.53407
9.48894
9.54328
9.51888
9.48751
9.44986
9.4005
9.45537
9.42889
9.3943
9.35272
9.29839
9.3535
9.32471
9.28655
9.24065
9.18083
9.23542
9.20404
9.16191
9.11127
9.04527
9.09849
9.06421
9.01768
8.96196
8.88911
8.9395
8.90201
8.85069
8.78954
8.70892
8.75475
8.71372
8.65725
8.59053
8.50106
8.53987
8.49492
8.43287
8.36038
8.26141
8.2898
8.24053
8.17248
8.09418
7.98552
7.99868
7.94459
7.87027
7.78658
7.66788
7.66076
7.60054
7.51993
7.43185
7.30286
7.26771
7.20125
7.11427
7.02355
6.88422
6.81066
6.73799
6.6455
6.55564
6.40545
6.28165
6.20258
6.10568
6.02171
5.86055
5.67263
5.58704
5.48738
5.41605
5.24482
4.97703
4.88514
4.78504
4.73606
4.55407
4.19015
4.09233
3.99556
3.98018
3.78606
3.311
3.20794
3.11888
3.15258
2.94589
2.34527
2.2367
2.15878
2.26391
2.04844
1.30627
1.19379
1.13117
1.32632
1.1042
0.216193
0.0998197
0.0538051
0.358223
0.135871
-0.897238
-1.01772
-1.04603
-0.606166
-0.82382
-1.99383
-2.12376
-2.12773
-1.52692
-1.72289
-3.01793
-3.16448
-3.14454
-2.3565
-2.46479
-3.89099
-4.07565
-4.02764
-2.99715
-2.8822
-4.54035
-4.78181
-4.66102
-3.33382
-2.8307
-4.85469
-5.17804
-4.88052
-3.19953
-2.18956
-4.82879
-5.20518
-4.59985
-2.31538
-0.340285
-4.6724
-4.89154
-3.891
-0.246265
3.90014
-4.5782
-4.1934
-2.28175
3.84709
10.5109
-5.05587
-1.14782
4.39895
12.4294
17.6876
10.0075
10.0025
10.0002
10.0004
9.99714
10.0091
10.0038
10.0022
10.0039
10.0005
10.0101
10.0048
10.0021
10.0012
9.99698
10.0095
10.0037
9.9999
9.99842
9.99284
10.0071
10.0008
9.99617
9.99363
9.98685
10.0027
9.99588
9.99055
9.9875
9.97957
9.99617
9.98882
9.98279
9.9791
9.97024
9.98722
9.97933
9.97269
9.96856
9.95867
9.97566
9.96723
9.95987
9.95519
9.9443
9.96116
9.95214
9.94411
9.93896
9.92692
9.94341
9.93376
9.9249
9.91914
9.90589
9.92197
9.91164
9.90195
9.89562
9.88098
9.89641
9.88532
9.87465
9.86758
9.85141
9.86615
9.85426
9.84256
9.83476
9.81684
9.83059
9.81781
9.80491
9.79617
9.77629
9.78898
9.77523
9.76106
9.75136
9.72924
9.74049
9.72566
9.71
9.69912
9.67447
9.68411
9.66808
9.65081
9.63871
9.61125
9.61869
9.60131
9.58218
9.56863
9.53803
9.54288
9.52402
9.50285
9.48778
9.45362
9.45506
9.43455
9.41108
9.39424
9.35601
9.35337
9.33103
9.30504
9.28633
9.24352
9.23552
9.21114
9.18233
9.16153
9.1136
9.09884
9.07225
9.04038
9.0174
8.96385
8.94015
8.91118
8.87596
8.85062
8.7909
8.75573
8.72423
8.68555
8.65793
8.59139
8.54123
8.50708
8.46481
8.43512
8.361
8.29191
8.25494
8.20899
8.1778
8.09535
8.00235
7.96221
7.91239
7.88048
7.78928
7.66503
7.62221
7.56867
7.5375
7.43735
7.27213
7.22653
7.1702
7.14235
7.03328
6.81557
6.76712
6.7092
6.6887
6.57065
6.2872
6.23585
6.17776
6.17101
6.04372
5.67817
5.62416
5.5684
5.5847
5.44719
4.9817
4.92523
4.87444
4.9238
4.76729
4.19245
4.13313
4.0902
4.18337
4.01339
3.30946
3.24701
3.21479
3.36778
3.18162
2.33761
2.27001
2.25157
2.48187
2.28879
1.28904
1.21586
1.21063
1.53115
1.34319
0.186233
0.102801
0.109842
0.529877
0.378236
-0.938855
-1.03528
-1.01634
-0.486422
-0.574927
-2.0379
-2.1622
-2.12533
-1.47877
-1.46212
-3.05666
-3.21779
-3.15926
-2.3951
-2.22056
-3.91127
-4.12708
-4.03189
-3.13541
-2.69931
-4.55159
-4.83043
-4.60934
-3.49546
-2.65998
-4.81256
-5.20487
-4.73109
-3.23274
-2.07239
-4.7183
-5.2083
-4.41501
-2.11799
-0.261664
-4.4746
-4.86024
-3.8162
0.0773086
3.98147
-4.23982
-4.27356
-2.47678
3.98802
10.3514
-3.93639
-1.63133
4.27356
12.3399
17.1461
9.99124
9.9959
9.9947
9.98866
9.98233
9.97442
9.96472
9.9527
9.93787
9.91998
9.8984
9.87288
9.84263
9.80729
9.76588
9.71787
9.66204
9.59764
9.52313
9.43729
9.33813
9.22391
9.09207
8.94017
8.76485
8.56297
8.33038
8.06261
7.75444
7.40045
6.9942
6.52847
5.99434
5.38594
4.71688
3.96735
3.15072
2.26975
1.34381
0.400356
-0.522092
-1.36939
-2.05174
-2.38506
-2.19127
-1.39028
0.907958
6.82387
15.6882
18.1731
9.98625
9.98683
9.98331
9.97677
9.96961
9.96083
9.95002
9.9368
9.92062
9.90124
9.87807
9.85066
9.81837
9.78069
9.7368
9.68596
9.62716
9.55941
9.4813
9.39132
9.28762
9.16827
9.03082
8.87272
8.69068
8.48101
8.23956
7.96214
7.64367
7.27888
6.86202
6.38679
5.84759
5.24103
4.56224
3.811
2.99011
2.11477
1.1959
0.260901
-0.655334
-1.49632
-2.15192
-2.43121
-2.16742
-1.21906
1.26195
7.4843
17.618
21.2538
9.9963
9.99597
9.99324
9.988
9.98149
9.97373
9.96365
9.9515
9.93623
9.91802
9.89593
9.86991
9.83903
9.80303
9.76084
9.71187
9.65495
9.58896
9.51264
9.42462
9.32289
9.2056
9.07023
8.91419
8.7341
8.52625
8.28656
8.01067
7.69337
7.32923
6.91238
6.43711
5.89693
5.28847
4.60892
3.85565
3.03584
2.16321
1.25286
0.32483
-0.581225
-1.40829
-2.04093
-2.29575
-2.01414
-1.04094
1.47281
7.77177
18.1687
22.2991
9.98625
9.98682
9.9833
9.97677
9.96962
9.96084
9.95003
9.9368
9.92062
9.90125
9.87807
9.85066
9.81838
9.7807
9.7368
9.68597
9.62717
9.55942
9.4813
9.39133
9.28763
9.16828
9.03084
8.87273
8.69069
8.48103
8.23957
7.96216
7.64369
7.27889
6.86202
6.38679
5.84759
5.24102
4.56221
3.81096
2.99006
2.11473
1.19586
0.260857
-0.655361
-1.49633
-2.1519
-2.43087
-2.16702
-1.21892
1.26237
7.48488
17.6187
21.2544
9.99123
9.99589
9.99469
9.98865
9.98233
9.97442
9.96472
9.9527
9.93787
9.91998
9.8984
9.87288
9.84263
9.80729
9.76589
9.71787
9.66204
9.59764
9.52314
9.4373
9.33814
9.22392
9.09208
8.94019
8.76487
8.56299
8.33039
8.06263
7.75445
7.40046
6.99421
6.52848
5.99436
5.38596
4.7169
3.96739
3.15076
2.26979
1.34386
0.400414
-0.522014
-1.36929
-2.05164
-2.38484
-2.19097
-1.38996
0.908431
6.82441
15.6886
18.1728
-21.5633
-13.6955
-4.24615
5.3961
10.608
-21.6574
-19.882
-15.9689
-5.09973
3.34095
-21.6344
-22.1912
-20.6389
-11.5697
-5.80868
-21.8502
-22.6674
-21.2698
-15.4127
-13
-21.9719
-22.7757
-21.4633
-17.6595
-16.4129
-21.5185
-22.1498
-21.2314
-18.5727
-17.6734
-20.4699
-20.8582
-20.2942
-18.4309
-17.9779
-18.9989
-19.2233
-18.8657
-17.5279
-17.4056
-17.2826
-17.4436
-17.2111
-16.21
-16.3324
-15.4904
-15.61
-15.4746
-14.7282
-14.9645
-13.7223
-13.8291
-13.7656
-13.2192
-13.5364
-12.0493
-12.1473
-12.1395
-11.748
-12.1085
-10.5104
-10.6077
-10.636
-10.3616
-10.7337
-9.12368
-9.21754
-9.2713
-9.0876
-9.45145
-7.89141
-7.98249
-8.05189
-7.93664
-8.27984
-6.80409
-6.89158
-6.9712
-6.90906
-7.22479
-5.85267
-5.93575
-6.02125
-5.99538
-6.28137
-5.02136
-5.10145
-5.18962
-5.1887
-5.44509
-4.30185
-4.37725
-4.46439
-4.48066
-4.70866
-3.67711
-3.74832
-3.83294
-3.86055
-4.06253
-3.13629
-3.20284
-3.28379
-3.31806
-3.49626
-2.6683
-2.73047
-2.80713
-2.84479
-3.00166
-2.26384
-2.32189
-2.39375
-2.43236
-2.57052
-1.91471
-1.96885
-2.03565
-2.07366
-2.19561
-1.61346
-1.66385
-1.72544
-1.76177
-1.86957
-1.35361
-1.40047
-1.45701
-1.49114
-1.58665
-1.12948
-1.17302
-1.22465
-1.25623
-1.341
-0.936286
-0.976722
-1.02382
-1.05284
-1.12828
-0.769859
-0.807408
-0.850198
-0.876613
-0.943881
-0.626718
-0.661612
-0.700503
-0.724512
-0.784647
-0.503807
-0.536226
-0.571448
-0.593109
-0.64699
-0.398545
-0.428704
-0.460677
-0.480273
-0.528668
-0.308655
-0.33673
-0.365669
-0.383274
-0.426848
-0.232239
-0.258427
-0.284748
-0.300687
-0.339952
-0.167651
-0.1921
-0.215961
-0.230285
-0.265729
-0.113476
-0.136346
-0.158111
-0.171123
-0.203132
-0.0684994
-0.0899124
-0.109661
-0.121361
-0.150359
-0.0316349
-0.0517202
-0.0697768
-0.0804512
-0.106713
-0.00198796
-0.0208689
-0.0372539
-0.0468486
-0.070737
0.0212648
0.00351288
-0.0114871
-0.0202828
-0.0419588
0.0387631
0.0220535
0.00847014
0.000577254
-0.0192088
0.0511829
0.0354851
0.0230618
0.0158219
-0.00211707
0.0589766
0.0441861
0.0330037
0.0266161
0.0102508
0.0626959
0.0488144
0.0386985
0.0329808
0.0182945
0.0626122
0.0494708
0.0406288
0.0360092
0.0228191
0.059037
0.0468358
0.0393315
0.0354909
0.024171
0.0521656
0.0409643
0.035136
0.0331775
0.023836
0.0421625
0.0319762
0.0288255
0.0275609
0.0204753
0.0305753
0.0211926
0.0192985
0.0233454
0.0176867
0.0187232
0.00976478
0.00504709
0.00607513
0.0014001
-23.2431
-13.2861
-3.99947
5.83486
11.0742
-21.8271
-19.7362
-15.5978
-4.95141
3.7024
-21.899
-22.1108
-19.9522
-11.6958
-5.63469
-22.0842
-22.6671
-21.0371
-15.8585
-12.8868
-22.0629
-22.7803
-21.4915
-18.0767
-16.4331
-21.5486
-22.1478
-21.2797
-18.7993
-17.804
-20.4607
-20.8899
-20.3711
-18.5463
-18.0946
-18.9769
-19.2365
-18.9564
-17.6312
-17.5831
-17.2534
-17.4506
-17.302
-16.3258
-16.5133
-15.4542
-15.6219
-15.5737
-14.8613
-15.1594
-13.685
-13.8457
-13.8754
-13.3749
-13.7226
-12.0183
-12.1713
-12.2622
-11.9216
-12.2899
-10.4891
-10.6401
-10.7602
-10.5496
-10.915
-9.1109
-9.25543
-9.39443
-9.28471
-9.63117
-7.88413
-8.02211
-8.16986
-8.13634
-8.45739
-6.80085
-6.93078
-7.08049
-7.10465
-7.39919
-5.85185
-5.97395
-6.12213
-6.18424
-6.4496
-5.02453
-5.13804
-5.28158
-5.36869
-5.60653
-4.30591
-4.41008
-4.54639
-4.64937
-4.86376
-3.68117
-3.77696
-3.90532
-4.01675
-4.21081
-3.13952
-3.22785
-3.34772
-3.462
-3.63776
-2.67114
-2.75247
-2.86371
-2.97684
-3.13628
-2.26639
-2.34124
-2.44391
-2.55305
-2.69821
-1.91686
-1.98573
-2.08015
-2.18361
-2.31618
-1.61516
-1.67854
-1.7651
-1.86196
-1.98318
-1.35485
-1.41321
-1.49243
-1.58233
-1.69338
-1.13032
-1.18412
-1.25651
-1.33938
-1.44121
-0.936766
-0.986415
-1.05258
-1.12864
-1.22216
-0.770051
-0.815968
-0.876365
-0.945924
-1.03188
-0.626639
-0.669159
-0.724339
-0.787872
-0.866988
-0.503485
-0.542963
-0.593361
-0.65129
-0.724116
-0.397991
-0.434733
-0.480823
-0.533628
-0.600823
-0.307968
-0.342249
-0.384364
-0.432392
-0.494575
-0.231481
-0.263487
-0.302089
-0.345893
-0.403406
-0.166897
-0.196852
-0.232228
-0.272182
-0.325303
-0.112729
-0.140781
-0.173322
-0.209903
-0.258948
-0.0677908
-0.094151
-0.124044
-0.157501
-0.202807
-0.0309367
-0.0557455
-0.0833218
-0.114044
-0.155891
-0.00133963
-0.0248577
-0.0501694
-0.0783031
-0.116994
0.0218553
-0.00036383
-0.023711
-0.0496251
-0.0853792
0.0392289
0.0181926
-0.00322877
-0.0270033
-0.0601064
0.0515814
0.0317558
0.0119664
-0.00998278
-0.0405682
0.0592447
0.0404635
0.02235
0.00228427
-0.026014
0.0629288
0.0452753
0.0285964
0.0101532
-0.0158871
0.0626684
0.0459445
0.0309059
0.0143988
-0.00945917
0.0591692
0.04369
0.0301096
0.0151616
-0.0063803
0.0521091
0.0376108
0.0260881
0.0137113
-0.00512702
0.0423497
0.0297475
0.0200643
0.00922815
-0.00692876
0.0298472
0.0179515
0.0113376
0.00583992
-0.00709363
0.0175302
0.00809724
0.00312505
-0.00184809
-0.012383
-24.2851
-12.653
-3.52165
6.15676
11.2888
-21.9121
-19.5733
-15.1496
-4.69581
3.91897
-21.9123
-21.9155
-19.6484
-11.5782
-5.47305
-22.0988
-22.5686
-20.943
-15.8589
-12.741
-22.0782
-22.7583
-21.4989
-18.0718
-16.3132
-21.558
-22.1623
-21.3082
-18.7425
-17.6807
-20.4678
-20.9168
-20.4091
-18.4668
-17.9483
-18.9704
-19.2544
-18.9946
-17.5664
-17.4498
-17.2418
-17.4553
-17.3344
-16.2729
-16.4001
-15.4391
-15.6219
-15.6035
-14.8176
-15.0721
-13.6681
-13.8396
-13.8991
-13.3501
-13.6441
-12.0033
-12.1677
-12.2782
-11.9146
-12.2201
-10.4769
-10.6373
-10.7768
-10.5547
-10.8501
-9.10163
-9.25416
-9.41049
-9.29951
-9.57021
-7.87709
-8.02074
-8.18274
-8.15426
-8.40355
-6.79575
-6.92988
-7.09217
-7.11855
-7.34686
-5.84795
-5.97267
-6.13121
-6.19424
-6.40001
-5.02163
-5.13592
-5.28728
-5.37406
-5.56016
-4.30234
-4.40671
-4.54894
-4.64897
-4.81907
-3.67735
-3.77261
-3.90518
-4.01157
-4.16639
-3.13568
-3.22262
-3.34528
-3.45277
-3.59371
-2.6672
-2.74647
-2.85921
-2.96415
-3.0931
-2.26232
-2.33456
-2.43769
-2.53778
-2.65589
-1.91263
-1.97849
-2.07253
-2.1665
-2.27474
-1.61075
-1.67083
-1.75639
-1.84356
-1.94272
-1.35028
-1.40517
-1.48289
-1.56311
-1.65401
-1.12564
-1.17582
-1.24636
-1.31969
-1.40301
-0.932012
-0.977938
-1.04199
-1.10875
-1.18522
-0.76526
-0.807376
-0.865512
-0.926054
-0.996248
-0.621839
-0.660467
-0.713356
-0.768182
-0.832732
-0.498682
-0.534146
-0.58236
-0.631903
-0.691185
-0.393179
-0.42585
-0.469916
-0.514786