/*--------------------------------*- C++ -*----------------------------------*\
| =========                 |                                                 |
| \\      /  F ield         | OpenFOAM: The Open Source CFD Toolbox           |
|  \\    /   O peration     | Version:                                        |
|   \\  /    A nd           | Website:  www.openfoam.com                      |
|    \\/     M anipulation  |                                                 |
\*---------------------------------------------------------------------------*/
FoamFile
{
    version     2.0;
    format      ascii;
    class       surfaceScalarField;
    location    "1.5";
    object      phi;
}
// * * * * * * * * * * * * * * * * * * * * * * * * * * * * * * * * * * * * * //

dimensions      [0 3 -1 0 0 0 0];
oriented        oriented;


internalField   nonuniform List<scalar> 
11440
(
0.000120882
-1.1978e-06
-1.19774e-06
0.000121689
-4.03956e-07
-4.03226e-07
0.000122031
-1.71693e-07
-1.6988e-07
0.000122273
-1.21073e-07
-1.21311e-07
0.000122287
-5.93298e-09
-7.47986e-09
0.000122184
5.13233e-08
5.1819e-08
0.000122042
7.08989e-08
7.0401e-08
0.000121884
7.89353e-08
7.94085e-08
0.000121712
8.63116e-08
8.5773e-08
0.00012153
9.06045e-08
9.11202e-08
0.000121342
9.4428e-08
9.38283e-08
0.00012115
9.55629e-08
9.61411e-08
0.000120956
9.77056e-08
9.70409e-08
0.000120759
9.7719e-08
9.8365e-08
0.000120562
9.92227e-08
9.84949e-08
0.000120364
9.83007e-08
9.90335e-08
0.000120167
9.90658e-08
9.80681e-08
0.000119969
9.84994e-08
9.94537e-08
0.000119771
9.94744e-08
9.84462e-08
0.000119574
9.80913e-08
9.90911e-08
0.000119378
9.89121e-08
9.78314e-08
0.000119182
9.71934e-08
9.82576e-08
0.000118988
9.78008e-08
9.66511e-08
0.000118795
9.58311e-08
9.69791e-08
0.000118603
9.631e-08
9.50964e-08
0.000118414
9.4162e-08
9.54349e-08
0.000118226
9.46825e-08
9.33399e-08
0.00011804
9.2465e-08
9.37723e-08
0.000117855
9.28125e-08
9.13927e-08
0.000117673
9.05546e-08
9.19215e-08
0.000117493
9.08048e-08
8.92802e-08
0.000117314
8.86372e-08
9.00078e-08
0.000117138
8.87605e-08
8.70543e-08
0.000116963
8.68648e-08
8.80742e-08
0.000116792
8.68685e-08
8.47269e-08
0.00011662
8.56428e-08
8.61683e-08
0.000116452
8.5747e-08
8.22992e-08
0.000116281
8.61389e-08
8.43336e-08
0.000116114
8.73778e-08
7.97476e-08
0.00011594
9.20039e-08
8.26466e-08
0.000115764
9.84163e-08
7.70078e-08
0.000115568
1.15513e-07
8.11253e-08
0.000115355
1.38649e-07
7.42352e-08
0.000115081
1.92373e-07
8.08394e-08
0.000114755
2.51485e-07
7.50838e-08
0.000114286
3.8639e-07
8.21903e-08
0.000113728
4.70697e-07
8.75799e-08
0.000113097
4.58454e-07
1.72815e-07
0.00011276
-2.49475e-08
3.61529e-07
-3.69616e-06
9.26433e-07
0.00011553
0.000123961
-1.54694e-07
-1.45008e-06
0.000124071
1.86581e-09
-5.16369e-07
0.000124148
7.38429e-08
-3.22133e-07
0.000124125
9.99386e-08
-1.97736e-07
0.000124095
1.16464e-07
-9.28569e-08
0.000124047
1.42968e-07
-4.33598e-08
0.000123989
1.56287e-07
-2.73781e-08
0.000123929
1.60596e-07
-2.15983e-08
0.000123869
1.63774e-07
-1.75083e-08
0.00012381
1.65414e-07
-1.58112e-08
0.000123753
1.65876e-07
-1.45269e-08
0.000123698
1.63795e-07
-1.35428e-08
0.000123646
1.61887e-07
-1.17308e-08
0.000123595
1.58265e-07
-1.00567e-08
0.000123547
1.55455e-07
-7.60534e-09
0.000123499
1.51195e-07
-5.44569e-09
0.000123452
1.48782e-07
-2.50603e-09
0.000123407
1.43453e-07
3.27302e-10
0.000123363
1.39197e-07
4.31309e-09
0.00012332
1.3385e-07
7.29295e-09
0.000123277
1.29958e-07
1.1095e-08
0.000123236
1.25018e-07
1.36905e-08
0.000123195
1.21742e-07
1.71055e-08
0.000123154
1.17234e-07
1.92246e-08
0.000123114
1.14501e-07
2.21807e-08
0.000123074
1.10324e-07
2.36619e-08
0.000123034
1.08015e-07
2.69036e-08
0.000122994
1.04226e-07
2.80099e-08
0.000122954
1.0256e-07
3.04187e-08
0.000122914
9.90982e-08
3.10449e-08
0.000122874
9.78127e-08
3.31964e-08
0.000122835
9.44982e-08
3.35734e-08
0.000122794
9.35267e-08
3.5639e-08
0.000122755
9.04362e-08
3.5799e-08
0.000122714
8.99406e-08
3.78264e-08
0.000122674
8.74337e-08
3.77826e-08
0.000122632
8.80325e-08
3.98055e-08
0.000122592
8.72815e-08
3.95549e-08
0.000122546
9.1099e-08
4.15393e-08
0.000122502
9.57049e-08
4.09558e-08
0.000122447
1.09971e-07
4.27783e-08
0.00012239
1.30171e-07
4.22655e-08
0.000122303
1.82657e-07
4.29708e-08
0.0001222
2.53768e-07
4.18264e-08
0.000121992
4.164e-07
4.30034e-08
0.000121688
6.51669e-07
3.87606e-08
0.000121046
1.052e-06
6.09695e-08
0.000119827
1.57818e-06
9.93296e-08
0.000117682
1.96068e-06
1.59761e-07
2.47169e-06
4.09344e-07
0.000111104
0.0001228
1.55044e-07
-1.21881e-06
0.000122965
-1.36448e-09
-1.61164e-07
0.000123162
-7.17768e-08
-5.18655e-08
0.000123312
-1.00896e-07
5.1219e-08
0.000123394
-1.16619e-07
1.51168e-07
0.000123465
-1.43039e-07
2.14378e-07
0.000123529
-1.56094e-07
2.48712e-07
0.000123582
-1.6065e-07
2.67759e-07
0.000123627
-1.63488e-07
2.83039e-07
0.000123661
-1.65454e-07
2.97016e-07
0.000123687
-1.65568e-07
3.04749e-07
0.000123707
-1.6385e-07
3.07451e-07
0.000123722
-1.6157e-07
3.0854e-07
0.000123733
-1.58343e-07
3.06283e-07
0.000123739
-1.5513e-07
3.03864e-07
0.000123743
-1.51296e-07
2.98847e-07
0.000123746
-1.48438e-07
2.94397e-07
0.000123746
-1.43555e-07
2.87203e-07
0.000123744
-1.38886e-07
2.80225e-07
0.000123739
-1.33971e-07
2.71945e-07
0.000123734
-1.29629e-07
2.65003e-07
0.000123727
-1.25165e-07
2.56991e-07
0.00012372
-1.21392e-07
2.50631e-07
0.000123711
-1.17407e-07
2.43096e-07
0.000123703
-1.14123e-07
2.37259e-07
0.000123693
-1.10517e-07
2.30114e-07
0.000123684
-1.07596e-07
2.24973e-07
0.000123674
-1.04436e-07
2.18537e-07
0.000123664
-1.02069e-07
2.14404e-07
0.000123654
-9.92915e-08
2.08588e-07
0.000123644
-9.71708e-08
2.05013e-07
0.000123634
-9.45333e-08
1.99371e-07
0.000123624
-9.24492e-08
1.9611e-07
0.000123613
-8.98342e-08
1.906e-07
0.000123603
-8.75229e-08
1.87627e-07
0.000123593
-8.46034e-08
1.82249e-07
0.000123583
-8.13393e-08
1.79536e-07
0.000123573
-7.70299e-08
1.74357e-07
0.000123562
-7.06511e-08
1.71931e-07
0.000123553
-6.15652e-08
1.67197e-07
0.000123542
-4.46943e-08
1.64929e-07
0.000123531
-1.82079e-08
1.60067e-07
0.000123522
3.39158e-08
1.57627e-07
0.000123491
1.3385e-07
1.5021e-07
0.000123461
2.99159e-07
1.47279e-07
0.000123308
6.62392e-07
1.42442e-07
0.000122992
1.22387e-06
1.44736e-07
0.000121844
2.58788e-06
1.37675e-07
0.000118831
4.66751e-06
3.06133e-07
7.93933e-06
4.01349e-07
0.000112962
0.000123961
1.1978e-06
-1.44956e-06
0.000124072
4.03381e-07
-5.15817e-07
0.000124145
1.70203e-07
-3.14933e-07
0.000124125
1.21889e-07
-2.02856e-07
0.000124095
6.42652e-09
-9.30815e-08
0.000124047
-5.14475e-08
-4.31522e-08
0.000123989
-7.07415e-08
-2.73576e-08
0.000123929
-7.90648e-08
-2.1428e-08
0.000123869
-8.61622e-08
-1.74197e-08
0.00012381
-9.07379e-08
-1.56381e-08
0.000123753
-9.42694e-08
-1.44471e-08
0.000123698
-9.57037e-08
-1.33745e-08
0.000123646
-9.75399e-08
-1.16621e-08
0.000123595
-9.78638e-08
-9.89411e-09
0.000123547
-9.9054e-08
-7.54848e-09
0.000123499
-9.84476e-08
-5.28985e-09
0.000123452
-9.88578e-08
-2.46304e-09
0.000123407
-9.86649e-08
4.79238e-10
0.000123363
-9.929e-08
4.3498e-09
0.000123319
-9.824e-08
7.4313e-09
0.000123277
-9.8749e-08
1.11333e-08
0.000123236
-9.73186e-08
1.38203e-08
0.000123195
-9.76677e-08
1.71449e-08
0.000123154
-9.59226e-08
1.93462e-08
0.000123114
-9.62247e-08
2.22221e-08
0.000123074
-9.42056e-08
2.3811e-08
0.000123034
-9.46496e-08
2.69379e-08
0.000122994
-9.24024e-08
2.81271e-08
0.000122954
-9.28595e-08
3.04809e-08
0.000122914
-9.03294e-08
3.11252e-08
0.000122874
-9.09225e-08
3.32572e-08
0.000122834
-8.81036e-08
3.36291e-08
0.000122795
-8.88431e-08
3.56968e-08
0.000122755
-8.56332e-08
3.58146e-08
0.000122716
-8.645e-08
3.7864e-08
0.000122676
-8.25861e-08
3.77169e-08
0.000122638
-8.3152e-08
3.97895e-08
0.0001226
-7.78899e-08
3.9379e-08
0.000122565
-7.70157e-08
4.15841e-08
0.00012253
-6.78926e-08
4.10628e-08
0.000122503
-6.19296e-08
4.38995e-08
0.000122481
-3.93751e-08
4.38644e-08
0.000122484
-1.8657e-08
4.96072e-08
0.000122511
5.95925e-08
4.65564e-08
0.000122585
1.67993e-07
5.75706e-08
0.000122765
4.28997e-07
5.31499e-08
0.000122937
9.7261e-07
7.94142e-08
0.000123265
2.15597e-06
1.04172e-07
0.000121938
5.84199e-06
1.52589e-07
1.14967e-05
3.6901e-07
0.000118011
0.000120883
-1.19782e-06
0.00012169
-4.03222e-07
0.00012203
-1.70362e-07
0.000122274
-1.21717e-07
0.000122287
-6.61188e-09
0.000122184
5.16625e-08
0.000122042
7.05175e-08
0.000121884
7.93136e-08
0.000121712
8.58938e-08
0.00012153
9.10251e-08
0.000121342
9.39593e-08
0.00012115
9.60358e-08
0.000120956
9.71805e-08
0.000120759
9.8248e-08
0.000120562
9.8642e-08
0.000120364
9.89005e-08
0.000120167
9.82627e-08
0.000119969
9.92858e-08
0.000119771
9.86475e-08
0.000119574
9.89106e-08
0.000119377
9.80448e-08
0.000119182
9.80598e-08
0.000118988
9.68846e-08
0.000118795
9.67535e-08
0.000118603
9.53517e-08
0.000118414
9.51527e-08
0.000118226
9.36582e-08
0.00011804
9.34632e-08
0.000117855
9.17565e-08
0.000117673
9.15487e-08
0.000117493
8.97127e-08
0.000117315
8.95414e-08
0.000117138
8.75914e-08
0.000116965
8.74602e-08
0.000116794
8.54158e-08
0.000116626
8.53242e-08
0.000116459
8.32252e-08
0.000116298
8.31127e-08
0.00011614
8.10334e-08
0.000115991
8.12308e-08
0.00011585
7.93158e-08
0.000115728
8.27196e-08
0.000115627
8.24103e-08
0.0001156
8.61497e-08
0.00011568
8.84725e-08
0.000116015
9.36919e-08
0.000116894
9.32852e-08
0.000118884
1.6603e-07
0.000124346
3.79907e-07
6.10188e-07
0.000135233
0.000123961
-1.45022e-06
-1.54684e-07
0.000124072
-5.17257e-07
2.88818e-09
0.000124145
-3.24626e-07
8.22952e-08
0.000124126
-1.96155e-07
9.361e-08
0.000124095
-9.24504e-08
1.15679e-07
0.000124047
-4.32293e-08
1.43352e-07
0.000123989
-2.75945e-08
1.56021e-07
0.000123929
-2.13333e-08
1.60806e-07
0.000123869
-1.77895e-08
1.63531e-07
0.00012381
-1.54979e-08
1.65629e-07
0.000123753
-1.48662e-08
1.65604e-07
0.000123698
-1.31746e-08
1.64025e-07
0.000123646
-1.21299e-08
1.61588e-07
0.000123595
-9.62393e-09
1.5852e-07
0.000123547
-8.07914e-09
1.5513e-07
0.000123499
-4.94856e-09
1.51472e-07
0.000123452
-3.09058e-09
1.48412e-07
0.000123407
9.25878e-10
1.4374e-07
0.000123363
3.67868e-09
1.38846e-07
0.00012332
7.96335e-09
1.34167e-07
0.000123277
1.03784e-08
1.2957e-07
0.000123236
1.4453e-08
1.25375e-07
0.000123195
1.62871e-08
1.21314e-07
0.000123154
2.00966e-08
1.17634e-07
0.000123114
2.12241e-08
1.14019e-07
0.000123074
2.49119e-08
1.1074e-07
0.000123034
2.55945e-08
1.07515e-07
0.000122994
2.93705e-08
1.0469e-07
0.000122954
2.8999e-08
1.01977e-07
0.000122914
3.26091e-08
9.95911e-08
0.000122874
3.15902e-08
9.71184e-08
0.000122834
3.54597e-08
9.49459e-08
0.000122795
3.38477e-08
9.25774e-08
0.000122754
3.82406e-08
9.06021e-08
0.000122714
3.6018e-08
8.82855e-08
0.000122673
4.13634e-08
8.65332e-08
0.000122632
3.8725e-08
8.41963e-08
0.000122588
4.5946e-08
8.26774e-08
0.000122543
4.37809e-08
8.03679e-08
0.000122491
5.52731e-08
7.92674e-08
0.000122434
5.73046e-08
7.67409e-08
0.000122357
8.16601e-08
7.64867e-08
0.00012226
9.77665e-08
7.35194e-08
0.000122109
1.59353e-07
7.26729e-08
0.000121893
2.16756e-07
7.43659e-08
0.00012155
3.53603e-07
7.15064e-08
0.0001211
4.52905e-07
8.51806e-08
0.000120782
3.57727e-07
1.32493e-07
0.000120888
1.33509e-07
1.22086e-07
-4.0756e-06
6.60599e-07
0.00012523
0.000126235
-3.22813e-07
-3.22862e-07
0.000125729
-2.62613e-07
-2.65065e-07
0.000125278
-7.14941e-08
-1.24043e-07
0.000124999
-7.67732e-08
-3.78718e-08
0.000124913
-5.02384e-08
-4.89457e-08
0.000124897
-3.55714e-08
-3.55667e-08
0.000124918
-3.78005e-08
-3.77117e-08
0.000124963
-4.40598e-08
-4.4123e-08
0.000125027
-4.97484e-08
-4.96411e-08
0.000125106
-5.49172e-08
-5.50227e-08
0.000125194
-5.91036e-08
-5.89776e-08
0.000125291
-6.1451e-08
-6.15817e-08
0.000125393
-6.29445e-08
-6.2794e-08
0.000125499
-6.29155e-08
-6.30761e-08
0.000125608
-6.25857e-08
-6.24026e-08
0.00012572
-6.095e-08
-6.11468e-08
0.000125833
-5.93883e-08
-5.91653e-08
0.000125947
-5.64469e-08
-5.66679e-08
0.000126062
-5.36198e-08
-5.33729e-08
0.000126178
-5.00061e-08
-5.02674e-08
0.000126293
-4.71344e-08
-4.68483e-08
0.000126409
-4.35323e-08
-4.38359e-08
0.000126524
-4.09134e-08
-4.05816e-08
0.000126638
-3.74485e-08
-3.7798e-08
0.000126752
-3.51823e-08
-3.47936e-08
0.000126864
-3.18554e-08
-3.22704e-08
0.000126976
-2.98102e-08
-2.9372e-08
0.000127087
-2.66862e-08
-2.71799e-08
0.000127197
-2.53673e-08
-2.4792e-08
0.000127306
-2.24475e-08
-2.31552e-08
0.000127413
-2.15494e-08
-2.0953e-08
0.00012752
-1.85367e-08
-1.9439e-08
0.000127625
-1.7805e-08
-1.73253e-08
0.000127729
-1.45676e-08
-1.59359e-08
0.000127831
-1.38237e-08
-1.39007e-08
0.000127933
-9.95931e-09
-1.26472e-08
0.000128031
-8.57632e-09
-1.0699e-08
0.000128129
-2.93962e-09
-9.56765e-09
0.00012822
9.79757e-10
-7.62276e-09
0.000128312
1.11448e-08
-6.49435e-09
0.000128393
2.37895e-08
-4.68951e-09
0.000128469
5.13838e-08
-3.75394e-09
0.000128522
9.0471e-08
-2.12815e-09
0.000128545
1.78655e-07
-1.0002e-09
0.000128487
3.14616e-07
3.71356e-09
0.000128319
5.61712e-07
-1.6437e-09
0.000127865
9.45785e-07
2.25287e-08
0.000126866
1.44582e-06
1.02927e-08
0.000125201
1.80039e-06
1.57781e-07
2.27499e-06
1.08839e-07
0.000119151
0.000125515
3.22968e-07
-2.22936e-07
0.000124915
2.65068e-07
-8.89332e-08
0.000124698
8.00609e-08
1.38899e-08
0.000124587
7.11413e-08
1.40625e-08
0.000124611
4.83063e-08
2.87161e-08
0.000124709
3.54616e-08
4.51191e-08
0.000124832
3.74578e-08
5.06665e-08
0.000124964
4.39473e-08
4.76825e-08
0.000125101
4.95538e-08
4.63999e-08
0.000125243
5.48587e-08
4.53832e-08
0.000125386
5.89056e-08
4.40159e-08
0.000125528
6.14215e-08
4.24125e-08
0.00012567
6.27312e-08
4.1346e-08
0.00012581
6.29188e-08
4.01561e-08
0.000125949
6.23522e-08
3.94915e-08
0.000126088
6.09913e-08
3.8619e-08
0.000126225
5.91326e-08
3.83207e-08
0.000126362
5.65274e-08
3.7756e-08
0.000126497
5.33391e-08
3.76036e-08
0.000126632
5.01312e-08
3.70814e-08
0.000126766
4.68172e-08
3.70498e-08
0.000126899
4.37015e-08
3.65786e-08
0.000127032
4.05566e-08
3.66726e-08
0.000127163
3.76671e-08
3.63619e-08
0.000127294
3.47912e-08
3.64827e-08
0.000127424
3.21403e-08
3.59937e-08
0.000127554
2.93685e-08
3.62053e-08
0.000127683
2.7027e-08
3.57641e-08
0.000127811
2.48727e-08
3.60125e-08
0.000127939
2.2962e-08
3.55553e-08
0.000128065
2.11681e-08
3.58699e-08
0.000128191
1.92853e-08
3.53943e-08
0.000128316
1.78406e-08
3.57626e-08
0.000128441
1.60313e-08
3.52561e-08
0.000128564
1.52132e-08
3.56587e-08
0.000128687
1.37496e-08
3.51324e-08
0.000128808
1.43185e-08
3.55553e-08
0.00012893
1.41706e-08
3.50475e-08
0.00012905
1.82019e-08
3.54313e-08
0.00012917
2.25578e-08
3.49435e-08
0.000129287
3.66662e-08
3.52764e-08
0.000129407
5.66588e-08
3.52487e-08
0.000129517
1.03234e-07
3.51162e-08
0.000129634
1.75415e-07
3.65217e-08
0.000129727
3.34481e-07
3.36422e-08
0.000129735
6.60065e-07
3.68482e-08
0.000129557
1.21685e-06
5.11164e-08
0.000128642
2.49901e-06
-7.5309e-10
0.000125991
4.50696e-06
2.50951e-07
7.71614e-06
1.13369e-07
0.000120838
0.000126237
1.44954e-06
-3.22951e-07
0.000125736
5.15798e-07
-2.65098e-07
0.000125266
3.1497e-07
-8.00918e-08
0.000125002
2.028e-07
-7.11756e-08
0.000124913
9.31395e-08
-4.8278e-08
0.000124898
4.30944e-08
-3.54906e-08
0.000124918
2.74306e-08
-3.74244e-08
0.000124963
2.135e-08
-4.39818e-08
0.000125027
1.75094e-08
-4.95034e-08
0.000125105
1.55468e-08
-5.49037e-08
0.000125194
1.4555e-08
-5.88499e-08
0.00012529
1.3261e-08
-6.14746e-08
0.000125392
1.17908e-08
-6.26677e-08
0.000125499
9.75786e-09
-6.29815e-08
0.000125608
7.7062e-09
-6.22773e-08
0.00012572
5.13504e-09
-6.10656e-08
0.000125833
2.67149e-09
-5.90405e-08
0.000125947
-6.73952e-10
-5.66065e-08
0.000126062
-4.13984e-09
-5.32431e-08
0.000126178
-7.64578e-09
-5.02268e-08
0.000126293
-1.09038e-08
-4.67073e-08
0.000126409
-1.40578e-08
-4.38155e-08
0.000126524
-1.68917e-08
-4.04272e-08
0.000126638
-1.96092e-08
-3.78019e-08
0.000126752
-2.19374e-08
-3.46307e-08
0.000126864
-2.41606e-08
-3.23059e-08
0.000126976
-2.65692e-08
-2.91575e-08
0.000127087
-2.849e-08
-2.72547e-08
0.000127197
-3.00796e-08
-2.45256e-08
0.000127306
-3.15196e-08
-2.32704e-08
0.000127414
-3.27595e-08
-2.06542e-08
0.00012752
-3.40264e-08
-1.95988e-08
0.000127626
-3.50002e-08
-1.69818e-08
0.00012773
-3.60953e-08
-1.61397e-08
0.000127833
-3.66719e-08
-1.34932e-08
0.000127935
-3.74357e-08
-1.28841e-08
0.000128036
-3.71853e-08
-1.01832e-08
0.000128137
-3.71156e-08
-9.77281e-09
0.000128238
-3.46581e-08
-6.97987e-09
0.00012834
-3.17414e-08
-6.39525e-09
0.000128447
-2.28975e-08
-3.61314e-09
0.00012856
-9.71934e-09
-2.62312e-09
0.000128687
2.70384e-08
-1.40771e-09
0.000128836
6.8829e-08
3.70187e-09
0.000129046
1.82538e-07
-3.33721e-10
0.000129345
4.05729e-07
8.40084e-09
0.000129686
9.29655e-07
2.55719e-08
0.000130192
2.05608e-06
4.17074e-08
0.000129197
5.61895e-06
3.56677e-08
1.12533e-05
5.85154e-07
0.000125443
0.000123961
-1.55029e-07
0.000124072
1.3761e-09
0.000124145
7.17159e-08
0.000124125
1.0092e-07
0.000124095
1.16591e-07
0.000124047
1.43095e-07
0.000123989
1.56041e-07
0.000123929
1.60712e-07
0.000123869
1.63413e-07
0.00012381
1.65539e-07
0.000123753
1.65479e-07
0.000123698
1.6395e-07
0.000123646
1.61462e-07
0.000123595
1.5846e-07
0.000123547
1.55001e-07
0.000123499
1.51429e-07
0.000123452
1.48281e-07
0.000123407
1.43716e-07
0.000123362
1.38718e-07
0.00012332
1.34154e-07
0.000123277
1.29432e-07
0.000123236
1.25378e-07
0.000123195
1.21167e-07
0.000123154
1.17651e-07
0.000123114
1.13869e-07
0.000123074
1.10785e-07
0.000123034
1.07329e-07
0.000122994
1.04737e-07
0.000122954
1.01793e-07
0.000122914
9.96455e-08
0.000122874
9.6949e-08
0.000122835
9.49927e-08
0.000122795
9.24352e-08
0.000122756
9.06181e-08
0.000122716
8.81956e-08
0.000122678
8.64833e-08
0.000122639
8.43057e-08
0.000122603
8.2315e-08
0.000122569
8.0685e-08
0.000122539
7.88893e-08
0.000122517
7.88087e-08
0.000122515
7.51145e-08
0.000122548
7.60819e-08
0.000122633
7.0298e-08
0.000122825
7.88609e-08
0.000123261
6.38506e-08
0.000124204
7.9268e-08
0.00012636
6.67127e-08
0.000132305
5.34804e-08
1.80471e-07
0.000143988
0.000122802
-1.21965e-06
1.54445e-07
0.000122972
-1.635e-07
-3.47081e-09
0.000123146
-8.27303e-09
-8.41282e-08
0.000123317
1.50636e-08
-9.23264e-08
0.000123394
1.53824e-07
-1.14983e-07
0.000123466
2.14681e-07
-1.4311e-07
0.000123529
2.48619e-07
-1.55805e-07
0.000123582
2.67994e-07
-1.60649e-07
0.000123627
2.82694e-07
-1.63415e-07
0.000123661
2.97331e-07
-1.65514e-07
0.000123687
3.04364e-07
-1.65514e-07
0.000123707
3.07805e-07
-1.63926e-07
0.000123722
3.08115e-07
-1.61509e-07
0.000123733
3.06687e-07
-1.58428e-07
0.000123739
3.03386e-07
-1.5506e-07
0.000123743
2.99303e-07
-1.51384e-07
0.000123746
2.93852e-07
-1.48345e-07
0.000123746
2.87715e-07
-1.43664e-07
0.000123744
2.79632e-07
-1.38789e-07
0.000123739
2.72539e-07
-1.34091e-07
0.000123734
2.64328e-07
-1.29517e-07
0.000123727
2.57674e-07
-1.25301e-07
0.00012372
2.49859e-07
-1.21266e-07
0.000123711
2.43885e-07
-1.1756e-07
0.000123703
2.36374e-07
-1.13975e-07
0.000123693
2.31011e-07
-1.10663e-07
0.000123684
2.23968e-07
-1.07472e-07
0.000123674
2.19606e-07
-1.04613e-07
0.000123665
2.13219e-07
-1.01938e-07
0.000123654
2.09882e-07
-9.95133e-08
0.000123644
2.03667e-07
-9.70854e-08
0.000123633
2.00947e-07
-9.48699e-08
0.000123624
1.9464e-07
-9.25491e-08
0.000123612
1.92658e-07
-9.05259e-08
0.000123602
1.86252e-07
-8.82596e-08
0.00012359
1.85332e-07
-8.64504e-08
0.000123579
1.79094e-07
-8.41607e-08
0.000123564
1.80112e-07
-8.25944e-08
0.00012355
1.74852e-07
-8.02467e-08
0.000123528
1.80489e-07
-7.91994e-08
0.000123501
1.79893e-07
-7.62633e-08
0.000123456
1.97539e-07
-7.59274e-08
0.000123388
2.14453e-07
-7.25008e-08
0.000123276
2.55116e-07
-7.0508e-08
0.000123087
3.34562e-07
-7.17768e-08
0.000122801
4.25387e-07
-6.77433e-08
0.00012243
5.38081e-07
-8.15823e-08
0.00012214
5.56611e-07
-1.33824e-07
0.000122711
-2.95206e-07
-1.53568e-07
-3.07617e-06
-5.53185e-07
0.000127001
0.000125513
-2.22462e-07
3.22581e-07
0.000124904
-8.30856e-08
2.63478e-07
0.000124716
-5.83609e-08
1.14959e-07
0.000124587
6.36133e-08
4.20921e-08
0.000124611
3.04305e-08
5.04459e-08
0.00012471
4.51954e-08
3.54502e-08
0.000124832
5.05862e-08
3.7737e-08
0.000124964
4.76926e-08
4.4031e-08
0.000125102
4.62593e-08
4.95382e-08
0.000125243
4.54578e-08
5.49204e-08
0.000125386
4.38757e-08
5.88737e-08
0.000125528
4.25137e-08
6.14817e-08
0.00012567
4.11862e-08
6.26937e-08
0.00012581
4.02825e-08
6.29811e-08
0.000125949
3.93056e-08
6.2307e-08
0.000126088
3.87724e-08
6.10583e-08
0.000126225
3.81063e-08
5.90775e-08
0.000126362
3.79445e-08
5.6588e-08
0.000126497
3.73529e-08
5.32922e-08
0.000126632
3.73138e-08
5.01918e-08
0.000126766
3.67558e-08
4.67691e-08
0.000126899
3.68584e-08
4.37625e-08
0.000127032
3.63284e-08
4.05044e-08
0.000127164
3.66917e-08
3.77272e-08
0.000127294
3.61491e-08
3.47174e-08
0.000127424
3.63372e-08
3.21971e-08
0.000127554
3.58066e-08
2.92944e-08
0.000127683
3.62036e-08
2.71139e-08
0.000127811
3.55712e-08
2.4708e-08
0.000127939
3.60616e-08
2.30897e-08
0.000128065
3.54111e-08
2.08776e-08
0.000128191
3.60643e-08
1.93797e-08
0.000128316
3.54336e-08
1.72545e-08
0.00012844
3.63013e-08
1.58833e-08
0.000128563
3.59005e-08
1.38357e-08
0.000128686
3.72716e-08
1.26064e-08
0.000128806
3.77788e-08
1.06487e-08
0.000128926
4.07163e-08
9.5472e-09
0.000129041
4.42756e-08
7.60575e-09
0.000129157
5.23426e-08
6.55389e-09
0.000129262
6.53668e-08
4.81129e-09
0.000129362
8.88433e-08
4.15941e-09
0.00012944
1.31371e-07
2.86654e-09
0.000129492
2.00333e-07
2.24068e-09
0.000129482
3.49396e-07
-1.52651e-09
0.00012932
5.81609e-07
4.50233e-09
0.000128949
9.52457e-07
-2.06095e-08
0.000128068
1.45399e-06
-6.264e-09
0.000126168
1.90031e-06
-1.37479e-07
1.85972e-06
-1.95798e-07
0.000121536
0.000124738
2.22961e-07
2.22511e-07
0.000124394
8.89005e-08
8.30431e-08
0.000124305
-1.39254e-08
5.87404e-08
0.00012446
-1.41211e-08
-6.38139e-08
0.000124579
-2.86758e-08
-3.04907e-08
0.000124759
-4.51688e-08
-4.51292e-08
0.000124962
-5.06188e-08
-5.0661e-08
0.000125153
-4.77355e-08
-4.76181e-08
0.000125338
-4.63364e-08
-4.63508e-08
0.00012552
-4.54535e-08
-4.53506e-08
0.000125696
-4.39431e-08
-4.39861e-08
0.000125865
-4.24908e-08
-4.23907e-08
0.00012603
-4.12637e-08
-4.13203e-08
0.000126191
-4.02417e-08
-4.01369e-08
0.000126349
-3.93986e-08
-3.94653e-08
0.000126504
-3.87096e-08
-3.86005e-08
0.000126657
-3.82178e-08
-3.82923e-08
0.000126808
-3.78535e-08
-3.77392e-08
0.000126958
-3.74893e-08
-3.75763e-08
0.000127107
-3.71965e-08
-3.70699e-08
0.000127254
-3.69247e-08
-3.70245e-08
0.000127401
-3.67115e-08
-3.65718e-08
0.000127547
-3.65319e-08
-3.66479e-08
0.000127693
-3.65118e-08
-3.63586e-08
0.000127839
-3.63436e-08
-3.64629e-08
0.000127983
-3.61525e-08
-3.59952e-08
0.000128127
-3.60308e-08
-3.61839e-08
0.000128271
-3.59709e-08
-3.5769e-08
0.000128414
-3.57888e-08
-3.59894e-08
0.000128557
-3.57628e-08
-3.55636e-08
0.0001287
-3.55132e-08
-3.5845e-08
0.000128842
-3.55943e-08
-3.54052e-08
0.000128984
-3.51139e-08
-3.57351e-08
0.000129126
-3.52547e-08
-3.52676e-08
0.000129268
-3.42357e-08
-3.56267e-08
0.00012941
-3.42049e-08
-3.51379e-08
0.00012955
-3.1851e-08
-3.55124e-08
0.000129692
-3.06827e-08
-3.50359e-08
0.000129832
-2.48225e-08
-3.53542e-08
0.000129973
-1.88351e-08
-3.4887e-08
0.000130111
-2.98464e-09
-3.50893e-08
0.000130251
1.90467e-08
-3.49948e-08
0.000130386
6.68552e-08
-3.47497e-08
0.000130517
1.41569e-07
-3.58167e-08
0.000130637
2.96206e-07
-3.29727e-08
0.000130705
5.85751e-07
-3.56846e-08
0.000130524
1.23498e-06
-5.06591e-08
0.000129714
2.26544e-06
-1.70994e-09
0.000127504
4.62249e-06
-2.61241e-07
7.69116e-06
-1.29127e-07
0.000121915
0.000125515
1.21882e-06
3.22902e-07
0.000124915
1.61077e-07
2.62587e-07
0.000124698
5.19703e-08
7.13459e-08
0.000124587
-5.13807e-08
7.68156e-08
0.000124611
-1.51008e-07
5.0184e-08
0.000124709
-2.14552e-07
3.56304e-08
0.000124832
-2.48515e-07
3.77204e-08
0.000124964
-2.67971e-07
4.41403e-08
0.000125101
-2.82759e-07
4.96423e-08
0.000125243
-2.97307e-07
5.5033e-08
0.000125386
-3.04434e-07
5.89736e-08
0.000125528
-3.0778e-07
6.15942e-08
0.00012567
-3.08184e-07
6.27821e-08
0.00012581
-3.06653e-07
6.30942e-08
0.000125949
-3.03457e-07
6.23838e-08
0.000126088
-2.9926e-07
6.11731e-08
0.000126225
-2.93927e-07
5.91398e-08
0.000126362
-2.87664e-07
5.67086e-08
0.000126497
-2.79714e-07
5.33319e-08
0.000126632
-2.72479e-07
5.03221e-08
0.000126766
-2.64423e-07
4.67887e-08
0.000126899
-2.57601e-07
4.3906e-08
0.000127032
-2.49974e-07
4.05019e-08
0.000127163
-2.43791e-07
3.78887e-08
0.000127294
-2.3652e-07
3.47009e-08
0.000127424
-2.30895e-07
3.23956e-08
0.000127554
-2.24128e-07
2.92253e-08
0.000127683
-2.19416e-07
2.73352e-08
0.000127811
-2.13415e-07
2.45954e-08
0.000127939
-2.0959e-07
2.33561e-08
0.000128066
-2.03877e-07
2.07124e-08
0.000128191
-2.00431e-07
1.96798e-08
0.000128317
-1.94727e-07
1.70341e-08
0.000128441
-1.91583e-07
1.62193e-08
0.000128565
-1.85717e-07
1.35434e-08
0.000128688
-1.82681e-07
1.2967e-08
0.000128812
-1.76204e-07
1.02378e-08
0.000128934
-1.72534e-07
9.87225e-09
0.000129059
-1.64485e-07
7.05047e-09
0.000129183
-1.55686e-07
6.52316e-09
0.000129317
-1.43455e-07
3.74011e-09
0.000129451
-1.20811e-07
2.83577e-09
0.000129605
-9.06035e-08
1.63766e-09
0.000129783
-2.87736e-08
-3.4501e-09
0.000130007
7.14655e-08
5.08587e-10
0.00013032
2.89271e-07
-8.16276e-09
0.000130782
8.24742e-07
-2.62687e-08
0.000131182
1.95138e-06
-4.46333e-08
0.0001308
5.08261e-06
-4.18905e-08
1.28432e-05
-5.96561e-07
0.000126829
0.0001228
1.54751e-07
0.000122965
-2.02968e-09
0.000123162
-7.37692e-08
0.000123312
-1.00122e-07
0.000123394
-1.1627e-07
0.000123465
-1.43154e-07
0.000123529
-1.56072e-07
0.000123582
-1.60813e-07
0.000123627
-1.63524e-07
0.000123661
-1.65666e-07
0.000123687
-1.656e-07
0.000123707
-1.64079e-07
0.000123722
-1.61579e-07
0.000123733
-1.58584e-07
0.000123739
-1.55112e-07
0.000123743
-1.51549e-07
0.000123746
-1.48388e-07
0.000123746
-1.43816e-07
0.000123744
-1.38808e-07
0.000123739
-1.34254e-07
0.000123734
-1.2952e-07
0.000123727
-1.25475e-07
0.00012372
-1.21252e-07
0.000123711
-1.17746e-07
0.000123703
-1.13951e-07
0.000123693
-1.1088e-07
0.000123684
-1.07411e-07
0.000123674
-1.04828e-07
0.000123664
-1.01871e-07
0.000123654
-9.9732e-08
0.000123644
-9.70213e-08
0.000123634
-9.5072e-08
0.000123624
-9.25015e-08
0.000123614
-9.06903e-08
0.000123605
-8.82549e-08
0.000123595
-8.65462e-08
0.000123587
-8.43476e-08
0.000123579
-8.23701e-08
0.000123576
-8.07535e-08
0.000123579
-7.88946e-08
0.000123593
-7.88426e-08
0.000123622
-7.49647e-08
0.000123684
-7.6062e-08
0.000123795
-7.0206e-08
0.000124024
-7.86743e-08
0.000124441
-6.39867e-08
0.000125425
-7.99244e-08
0.000127511
-6.75767e-08
0.000132702
-5.48764e-08
-1.80858e-07
0.000145906
0.000123961
-1.45075e-06
1.19788e-06
0.000124071
-5.17957e-07
4.03609e-07
0.000124148
-3.31552e-07
1.71349e-07
0.000124125
-1.90166e-07
1.2031e-07
0.000124095
-9.186e-08
7.12042e-09
0.000124047
-4.31188e-08
-5.17965e-08
0.000123989
-2.73979e-08
-7.04203e-08
0.000123929
-2.12131e-08
-7.94016e-08
0.000123869
-1.76847e-08
-8.57764e-08
0.00012381
-1.53921e-08
-9.11196e-08
0.000123753
-1.47679e-08
-9.38386e-08
0.000123698
-1.30721e-08
-9.61456e-08
0.000123646
-1.20362e-08
-9.7055e-08
0.000123595
-9.5269e-09
-9.83701e-08
0.000123547
-7.99152e-09
-9.85094e-08
0.000123499
-4.85729e-09
-9.90368e-08
0.000123452
-3.00894e-09
-9.80843e-08
0.000123407
1.01015e-09
-9.94573e-08
0.000123363
3.75231e-09
-9.84624e-08
0.00012332
8.04377e-09
-9.9094e-08
0.000123277
1.04483e-08
-9.7848e-08
0.000123236
1.45307e-08
-9.826e-08
0.000123195
1.63534e-08
-9.66679e-08
0.000123154
2.01711e-08
-9.69803e-08
0.000123114
2.12846e-08
-9.51138e-08
0.000123074
2.49944e-08
-9.54365e-08
0.000123034
2.56571e-08
-9.33583e-08
0.000122994
2.94474e-08
-9.37716e-08
0.000122954
2.90603e-08
-9.14123e-08
0.000122914
3.26858e-08
-9.19195e-08
0.000122874
3.16436e-08
-8.92994e-08
0.000122834
3.55319e-08
-9.00044e-08
0.000122795
3.38972e-08
-8.70728e-08
0.000122754
3.83083e-08
-8.80691e-08
0.000122714
3.60664e-08
-8.47448e-08
0.000122673
4.14252e-08
-8.61547e-08
0.000122632
3.87685e-08
-8.23161e-08
0.000122588
4.60133e-08
-8.42909e-08
0.000122543
4.37842e-08
-7.97584e-08
0.000122491
5.53759e-08
-8.25151e-08
0.000122435
5.72598e-08
-7.70231e-08
0.000122358
8.14127e-08
-8.08982e-08
0.000122263
9.72172e-08
-7.39698e-08
0.000122114
1.58668e-07
-8.07573e-08
0.000121903
2.11341e-07
-7.16521e-08
0.000121572
3.50651e-07
-8.77134e-08
0.000121112
4.50677e-07
-7.21773e-08
0.000120778
3.48374e-07
-1.48113e-07
0.000121009
-2.41339e-08
-3.60567e-07
-3.79467e-06
-6.95501e-07
0.000124946
0.000126233
-3.22529e-07
1.45084e-06
0.000125724
-2.63475e-07
5.18021e-07
0.000125291
-1.15336e-07
3.31341e-07
0.000124995
-4.19144e-08
1.90323e-07
0.000124912
-5.05134e-08
9.1647e-08
0.000124897
-3.53915e-08
4.33365e-08
0.000124918
-3.78217e-08
2.71474e-08
0.000124963
-4.39544e-08
2.14771e-08
0.000125027
-4.96474e-08
1.73883e-08
0.000125106
-5.48105e-08
1.57023e-08
0.000125194
-5.90014e-08
1.44174e-08
0.000125291
-6.13482e-08
1.34391e-08
0.000125393
-6.28482e-08
1.16255e-08
0.000125499
-6.28185e-08
9.95921e-09
0.000125608
-6.24952e-08
7.50694e-09
0.00012572
-6.0859e-08
5.35645e-09
0.000125833
-5.93044e-08
2.41653e-09
0.000125947
-5.63622e-08
-4.06197e-10
0.000126062
-5.35433e-08
-4.39488e-09
0.000126178
-4.99258e-08
-7.36783e-09
0.000126293
-4.70615e-08
-1.11759e-08
0.000126409
-4.34546e-08
-1.37625e-08
0.000126524
-4.08443e-08
-1.71853e-08
0.000126638
-3.73729e-08
-1.92928e-08
0.000126752
-3.51149e-08
-2.22572e-08
0.000126864
-3.17762e-08
-2.37362e-08
0.000126976
-2.97433e-08
-2.69868e-08
0.000127087
-2.66139e-08
-2.80761e-08
0.000127197
-2.52989e-08
-3.05033e-08
0.000127306
-2.23705e-08
-3.11078e-08
0.000127413
-2.14912e-08
-3.32754e-08
0.00012752
-1.84642e-08
-3.36291e-08
0.000127625
-1.7752e-08
-3.57146e-08
0.000127729
-1.44987e-08
-3.58481e-08
0.000127831
-1.37741e-08
-3.78985e-08
0.000127933
-9.89399e-09
-3.78215e-08
0.000128031
-8.53068e-09
-3.98692e-08
0.000128129
-2.88039e-09
-3.95726e-08
0.00012822
9.99289e-10
-4.15717e-08
0.000128312
1.11954e-08
-4.09385e-08
0.000128393
2.37979e-08
-4.27169e-08
0.00012847
5.11175e-08
-4.21697e-08
0.000128522
9.06073e-08
-4.2941e-08
0.000128547
1.77534e-07
-4.10797e-08
0.000128486
3.1359e-07
-4.28204e-08
0.000128318
5.60041e-07
-3.67283e-08
0.000127864