/*--------------------------------*- C++ -*----------------------------------*\
| =========                 |                                                 |
| \\      /  F ield         | OpenFOAM: The Open Source CFD Toolbox           |
|  \\    /   O peration     | Version:                                        |
|   \\  /    A nd           | Website:  www.openfoam.com                      |
|    \\/     M anipulation  |                                                 |
\*---------------------------------------------------------------------------*/
FoamFile
{
    version     2.0;
    format      ascii;
    class       volVectorField;
    location    "1.5";
    object      U;
}
// * * * * * * * * * * * * * * * * * * * * * * * * * * * * * * * * * * * * * //

dimensions      [0 1 -1 0 0 0 0];


internalField   nonuniform List<vector> 
4375
(
(7.46082 -0.353518 -0.353518)
(7.55183 -0.291791 -0.291769)
(7.64343 -0.243309 -0.243254)
(7.6535 -0.211534 -0.211546)
(7.64557 -0.182785 -0.182822)
(7.63869 -0.158098 -0.158082)
(7.63266 -0.137766 -0.137787)
(7.62312 -0.120609 -0.12059)
(7.61308 -0.105731 -0.105752)
(7.60115 -0.0927272 -0.0927063)
(7.59017 -0.081378 -0.0814013)
(7.5776 -0.07145 -0.0714274)
(7.56623 -0.06275 -0.0627752)
(7.55324 -0.0551016 -0.0550772)
(7.54172 -0.048381 -0.0484077)
(7.52852 -0.0424619 -0.0424356)
(7.51705 -0.0372667 -0.0372938)
(7.5038 -0.0327387 -0.0327094)
(7.4924 -0.0288511 -0.0288827)
(7.47903 -0.0253903 -0.0253581)
(7.46778 -0.0223981 -0.0224329)
(7.45439 -0.0196851 -0.0196501)
(7.44339 -0.0173565 -0.0173939)
(7.43004 -0.0151985 -0.0151612)
(7.41934 -0.0133808 -0.0134199)
(7.40605 -0.0116421 -0.0116021)
(7.3957 -0.0102263 -0.0102648)
(7.38248 -0.00879606 -0.00875914)
(7.37251 -0.00770975 -0.00774699)
(7.35935 -0.00651581 -0.00648256)
(7.34981 -0.00570891 -0.00574317)
(7.33671 -0.00468552 -0.00466009)
(7.32762 -0.00412127 -0.0041522)
(7.31457 -0.00320623 -0.00319747)
(7.30595 -0.00285954 -0.00289136)
(7.29289 -0.00198869 -0.00201843)
(7.28472 -0.00184066 -0.00189644)
(7.27157 -0.000933299 -0.00106217)
(7.26372 -0.000951607 -0.00111904)
(7.2502 0.000127779 -0.000278806)
(7.24227 5.49289e-05 -0.000524838)
(7.22752 0.00162526 0.000368986)
(7.21821 0.0018942 -9.38003e-05)
(7.19958 0.00486628 0.000940266)
(7.18514 0.00631826 0.000335423)
(7.15684 0.012433 0.00134719)
(7.13182 0.0136887 0.000732997)
(7.0911 0.0245772 0.00335078)
(7.05271 -0.0179368 0.0134676)
(7.06538 -0.067573 0.0249067)
(7.73328 0.081486 -0.362857)
(7.74588 0.116437 -0.301579)
(7.75965 0.126069 -0.241826)
(7.76181 0.118939 -0.199164)
(7.75802 0.112109 -0.164318)
(7.75414 0.104417 -0.136727)
(7.75106 0.0956478 -0.115013)
(7.74747 0.0866629 -0.0974256)
(7.74381 0.078542 -0.0827184)
(7.73989 0.0711267 -0.070348)
(7.73635 0.064638 -0.0598106)
(7.73274 0.058631 -0.0508265)
(7.72952 0.0534574 -0.0430712)
(7.72618 0.0486353 -0.0364122)
(7.72322 0.0445581 -0.0306279)
(7.72008 0.0406778 -0.0256501)
(7.71729 0.0374666 -0.0213081)
(7.71424 0.0343496 -0.0175789)
(7.71159 0.0318425 -0.014263)
(7.70872 0.0293408 -0.0114416)
(7.70622 0.0274039 -0.00892863)
(7.70345 0.0253628 -0.00681648)
(7.70103 0.0238598 -0.00492029)
(7.69832 0.0221625 -0.00335017)
(7.69595 0.0209959 -0.00192329)
(7.69328 0.0195554 -0.000772162)
(7.69095 0.018656 0.000279465)
(7.68829 0.0174148 0.00108066)
(7.68595 0.0167346 0.00186014)
(7.68329 0.0156499 0.0024291)
(7.68096 0.0151481 0.00301884)
(7.67831 0.0141826 0.00341527)
(7.67598 0.0138246 0.00386959)
(7.67333 0.0129571 0.00413707)
(7.67098 0.012724 0.00449416)
(7.66831 0.0119575 0.00466172)
(7.66591 0.0118559 0.00494924)
(7.66318 0.0112431 0.00503683)
(7.66063 0.011354 0.00527541)
(7.65769 0.0110871 0.00529266)
(7.65473 0.0117111 0.00548693)
(7.65109 0.012428 0.00545221)
(7.647 0.0144384 0.00558633)
(7.64013 0.0186449 0.00549934)
(7.63332 0.0239035 0.00562277)
(7.60995 0.0395521 0.00519802)
(7.59718 0.0527493 0.00589578)
(7.50634 0.0742193 0.00660542)
(7.44705 0.0881165 0.00907197)
(7.11943 -0.0489472 0.0131994)
(7.63898 9.03324e-06 -0.345441)
(7.67337 2.14934e-05 -0.276843)
(7.70014 5.1482e-05 -0.214701)
(7.70634 -3.99337e-06 -0.171591)
(7.70992 -2.17152e-05 -0.135412)
(7.71408 1.60424e-05 -0.10671)
(7.71854 -9.22941e-06 -0.0842836)
(7.72236 1.86427e-05 -0.0663944)
(7.7255 -8.67358e-06 -0.0515966)
(7.72788 2.15741e-05 -0.0395107)
(7.72977 -1.09086e-05 -0.0294165)
(7.73116 2.37664e-05 -0.0210577)
(7.73229 -1.38498e-05 -0.0139509)
(7.73302 2.59422e-05 -0.00807704)
(7.73359 -1.72026e-05 -0.00303533)
(7.73385 2.84806e-05 0.00108317)
(7.73407 -2.02513e-05 0.00465124)
(7.73411 3.26919e-05 0.00753347)
(7.7341 -2.39782e-05 0.00996362)
(7.73385 3.6459e-05 0.0118683)
(7.73359 -2.82298e-05 0.0134957)
(7.73316 4.00384e-05 0.0147247)
(7.73275 -3.2652e-05 0.0157925)
(7.7322 4.37993e-05 0.0165452)
(7.73172 -3.68311e-05 0.017218)
(7.7311 4.78954e-05 0.0176248)
(7.73057 -4.00081e-05 0.0180002)
(7.72991 5.16984e-05 0.0181483)
(7.72936 -4.20859e-05 0.0183247)
(7.72867 5.61083e-05 0.0183112)
(7.7281 -4.07639e-05 0.0183557)
(7.7274 6.37374e-05 0.0182279)
(7.72682 -2.8635e-05 0.0181731)
(7.72611 8.45363e-05 0.0179656)
(7.72555 1.51408e-05 0.0178376)
(7.72483 0.000152096 0.0175785)
(7.72427 0.000156668 0.0173943)
(7.72357 0.000376912 0.0171081)
(7.72301 0.000609297 0.0168772)
(7.7223 0.00110098 0.016594)
(7.72177 0.00214764 0.0163134)
(7.72096 0.00336912 0.0160332)
(7.72028 0.00766735 0.0156819)
(7.7194 0.0109867 0.0153662)
(7.71563 0.0259624 0.0149014)
(7.71375 0.036133 0.0148538)
(7.6865 0.082096 0.0139476)
(7.66603 0.11969 0.0149717)
(7.5051 0.229478 0.0155767)
(7.2951 0.341977 0.0250595)
(7.73329 -0.0814724 -0.36284)
(7.74593 -0.116463 -0.301559)
(7.75959 -0.126023 -0.241592)
(7.76176 -0.118974 -0.199233)
(7.75801 -0.112064 -0.164381)
(7.75419 -0.104456 -0.136697)
(7.75103 -0.0956008 -0.115002)
(7.74751 -0.0867071 -0.0974048)
(7.74378 -0.0784872 -0.0827079)
(7.73992 -0.0711755 -0.0703293)
(7.73632 -0.0645759 -0.0598031)
(7.73277 -0.0586864 -0.0508088)
(7.72948 -0.0533882 -0.043066)
(7.72621 -0.0486988 -0.0363948)
(7.72317 -0.0444816 -0.0306248)
(7.72012 -0.0407501 -0.0256326)
(7.71725 -0.0373812 -0.0213074)
(7.71428 -0.0344317 -0.0175618)
(7.71154 -0.0317469 -0.014264)
(7.70876 -0.0294328 -0.0114243)
(7.70617 -0.0272981 -0.00893136)
(7.70349 -0.025466 -0.00679834)
(7.70098 -0.0237428 -0.0049251)
(7.69837 -0.0222778 -0.00333072)
(7.6959 -0.0208667 -0.00193064)
(7.69333 -0.0196832 -0.000750605)
(7.6909 -0.0185134 0.00026953)
(7.68833 -0.0175544 0.00110308)
(7.6859 -0.0165768 0.00184801)
(7.68334 -0.0157998 0.00245464)
(7.68092 -0.0149712 0.0030025)
(7.67837 -0.0143348 0.00344435)
(7.67595 -0.0136153 0.00384776)
(7.67342 -0.013085 0.00417022)
(7.671 -0.0124387 0.00446482)
(7.6685 -0.0119757 0.00469907)
(7.6661 -0.0113506 0.00490879)
(7.66368 -0.0108802 0.00507822)
(7.66139 -0.0101618 0.00522184)
(7.65919 -0.00946713 0.00535107)
(7.65724 -0.0083965 0.00544984)
(7.65587 -0.00646311 0.00557903)
(7.65453 -0.00456728 0.00576577)
(7.65665 0.00338053 0.0057467)
(7.65737 0.00730722 0.006107)
(7.66682 0.037746 0.00608559)
(7.67602 0.0496384 0.00694468)
(7.67769 0.175032 0.0078052)
(7.68105 0.258008 0.0102784)
(7.48052 0.735377 0.0159778)
(7.46083 0.35352 -0.353521)
(7.55194 0.291806 -0.291783)
(7.64327 0.243229 -0.243255)
(7.65365 0.211567 -0.211539)
(7.64541 0.182775 -0.182806)
(7.63885 0.158122 -0.15809)
(7.63249 0.137732 -0.137767)
(7.6233 0.120637 -0.1206)
(7.61289 0.105691 -0.105732)
(7.60135 0.0927607 -0.0927182)
(7.58996 0.0813332 -0.0813792)
(7.57782 0.0714905 -0.0714418)
(7.566 0.0626988 -0.0627512)
(7.55348 0.0551496 -0.0550942)
(7.54146 0.0483217 -0.0483814)
(7.52879 0.0425189 -0.0424555)
(7.51676 0.037198 -0.0372651)
(7.50409 0.0328067 -0.0327332)
(7.49209 0.0287719 -0.0288504)
(7.47935 0.0254706 -0.0253858)
(7.46743 0.0223058 -0.0223964)
(7.45475 0.0197802 -0.0196825)
(7.443 0.017248 -0.0173525)
(7.43044 0.0153118 -0.0151993)
(7.41891 0.0132523 -0.0133725)
(7.40649 0.0117776 -0.0116477)
(7.39523 0.010073 -0.010211)
(7.38297 0.00896042 -0.00881137)
(7.37199 0.00752625 -0.00768488)
(7.3599 0.00671653 -0.00654399)
(7.34924 0.00548879 -0.0056706)
(7.33734 0.00493494 -0.00473385)
(7.32702 0.00385927 -0.00406596)
(7.3153 0.00352689 -0.00328784)
(7.30536 0.00255941 -0.00278699)
(7.29385 0.00243062 -0.00213149)
(7.28435 0.00154232 -0.00176684)
(7.27312 0.00162457 -0.0012089)
(7.2642 0.000820582 -0.000949894)
(7.25347 0.00117304 -0.000466792)
(7.24559 0.000576293 -0.000292443)
(7.23603 0.00136895 0.000204311)
(7.23091 0.0015926 0.00042333)
(7.22347 0.00285788 0.000915659)
(7.23073 0.00943356 0.00149814)
(7.23101 0.0108522 0.00177289)
(7.29339 0.0428774 0.00236301)
(7.33576 0.0362774 0.00360293)
(7.59186 0.245054 0.0121833)
(7.95947 0.157678 0.0176583)
(7.73329 -0.362855 0.0814857)
(7.74587 -0.301573 0.116467)
(7.75966 -0.241915 0.126364)
(7.76167 -0.199116 0.118838)
(7.75812 -0.164325 0.111973)
(7.75409 -0.136701 0.104464)
(7.75113 -0.11504 0.0956062)
(7.7474 -0.097395 0.0867031)
(7.74389 -0.0827525 0.0784978)
(7.7398 -0.0703116 0.0711699)
(7.73644 -0.0598508 0.0645875)
(7.73264 -0.0507833 0.0586794)
(7.72962 -0.0431185 0.0534009)
(7.72608 -0.0363613 0.04869)
(7.72332 -0.0306836 0.0444956)
(7.71997 -0.0255906 0.0407399)
(7.71741 -0.0213743 0.0373976)
(7.71412 -0.0175104 0.0344191)
(7.71172 -0.0143374 0.0317652)
(7.70859 -0.0113627 0.0294176)
(7.70636 -0.00901391 0.0273185)
(7.70331 -0.00672536 0.0254482)
(7.70119 -0.00501884 0.0237656)
(7.69816 -0.00324445 0.0222575)
(7.69612 -0.00203817 0.0208925)
(7.69311 -0.000649884 0.0196607)
(7.69113 0.000143497 0.0185419)
(7.6881 0.0012276 0.0175287)
(7.68614 0.00170002 0.0166089)
(7.6831 0.00260412 0.0157729)
(7.68117 0.00282979 0.0150093)
(7.6781 0.00362566 0.0143108)
(7.67619 0.00364777 0.0136655)
(7.6731 0.00439515 0.0130777)
(7.67118 0.00423955 0.0125225)
(7.66804 0.00499313 0.0120293)
(7.66607 0.00467893 0.0115392)
(7.66282 0.00550596 0.011132)
(7.66065 0.00506621 0.010684)
(7.65705 0.00607981 0.0103688)
(7.65426 0.0056175 0.00993152)
(7.64955 0.00709818 0.00972917)
(7.64469 0.0070967 0.00927463)
(7.63683 0.0096681 0.00915646)
(7.62578 0.0112148 0.00890807)
(7.6101 0.0160026 0.00874907)
(7.58696 0.0196912 0.00883041)
(7.56013 0.0173363 0.0130929)
(7.54255 0.0201648 0.015396)
(7.62198 -0.166031 0.058115)
(7.99714 0.0582595 0.05825)
(7.86713 0.101358 0.101277)
(7.82285 0.101566 0.101673)
(7.81487 0.092126 0.0920626)
(7.80946 0.0832525 0.0832197)
(7.80584 0.0737782 0.0737854)
(7.80581 0.0637499 0.0637521)
(7.80819 0.0542467 0.0542449)
(7.81193 0.0458863 0.0458901)
(7.81642 0.0385867 0.038583)
(7.82171 0.0322834 0.0322871)
(7.8275 0.0268937 0.0268893)
(7.83377 0.022314 0.0223183)
(7.84026 0.0184276 0.0184226)
(7.84706 0.0151417 0.0151471)
(7.85394 0.0123636 0.012358)
(7.86101 0.0100237 0.0100316)
(7.86809 0.0080829 0.00807674)
(7.87529 0.006501 0.00650742)
(7.88247 0.00517223 0.00516583)
(7.88972 0.00408548 0.00409187)
(7.89692 0.00316042 0.00315388)
(7.90415 0.00241248 0.0024192)
(7.9113 0.00177068 0.00176383)
(7.91844 0.00126178 0.00126978)
(7.9255 0.00081493 0.000808502)
(7.93252 0.000460812 0.000470527)
(7.93948 0.000149063 0.000137235)
(7.94638 -7.64922e-05 -6.53045e-05)
(7.95323 -0.000254876 -0.000273634)
(7.95998 -0.000376919 -0.000361603)
(7.9667 -0.000453245 -0.000484885)
(7.97329 -0.00051203 -0.000496939)
(7.97986 -0.000504608 -0.000564505)
(7.98626 -0.000521135 -0.00052396)
(7.99267 -0.00042286 -0.000554447)
(7.99884 -0.0003922 -0.000477992)
(8.00503 -0.000147251 -0.000483327)
(8.01089 8.73595e-06 -0.000381979)
(8.01672 0.000597355 -0.000367601)
(8.02201 0.00116282 -0.000258154)
(8.02705 0.00276469 -0.0002128)
(8.03097 0.00434432 -0.00015557)
(8.03314 0.0102692 -8.36641e-05)
(8.03423 0.0149547 9.81709e-05)
(8.02079 0.0324045 -0.000231071)
(8.01736 0.0436928 0.00143022)
(7.94114 0.0665483 0.00202271)
(7.90175 0.0616944 0.00826578)
(7.60272 -0.0403057 0.012667)
(7.92332 -7.25964e-07 0.06665)
(7.82344 7.1295e-05 0.114167)
(7.78381 0.000267414 0.111189)
(7.78275 -0.000130342 0.0956019)
(7.78688 -0.00011519 0.0853377)
(7.79099 -3.41743e-06 0.0773658)
(7.79745 -1.84624e-05 0.0687059)
(7.8057 -9.30945e-07 0.0603289)
(7.81447 -1.34877e-05 0.0529171)
(7.82323 2.60039e-06 0.0463582)
(7.83213 -1.50187e-05 0.0406788)
(7.84105 5.53703e-06 0.0357592)
(7.84995 -1.71747e-05 0.0315645)
(7.85874 8.79638e-06 0.0279068)
(7.8675 -1.98992e-05 0.024785)
(7.87616 1.25441e-05 0.0220349)
(7.8848 -2.28914e-05 0.0196959)
(7.89334 1.69306e-05 0.0175819)
(7.90187 -2.63644e-05 0.01576)
(7.9103 2.15549e-05 0.0141169)
(7.91872 -3.06318e-05 0.0127451)
(7.92704 2.63848e-05 0.0114987)
(7.93537 -3.53339e-05 0.0104862)
(7.94359 3.15907e-05 0.0095448)
(7.95183 -4.016e-05 0.0088164)
(7.95995 3.75459e-05 0.00813305)
(7.9681 -4.39219e-05 0.00763278)
(7.97613 4.14933e-05 0.00711157)
(7.98423 -4.56644e-05 0.00675943)
(7.99216 4.74208e-05 0.00635039)
(8.00017 -4.55169e-05 0.00610288)
(8.00799 5.61265e-05 0.00576213)
(8.01591 -3.54311e-05 0.00558689)
(8.02361 7.71498e-05 0.00529203)
(8.03146 4.07512e-06 0.00517396)
(8.03903 0.000142372 0.00491233)
(8.04682 0.000134785 0.00484111)
(8.05425 0.000358634 0.00460635)
(8.06198 0.000557734 0.00457455)
(8.06928 0.00108846 0.00436806)
(8.07693 0.00192489 0.00437322)
(8.08404 0.00340867 0.00419214)
(8.09149 0.00636066 0.00422275)
(8.09798 0.0101519 0.00398754)
(8.10439 0.0226234 0.0038877)
(8.10914 0.0329034 0.00364613)
(8.09582 0.0791366 0.00469291)
(8.08048 0.111907 0.000696185)
(7.94455 0.225628 0.019195)
(7.75812 0.317614 0.014547)
(7.99713 -0.0582648 0.0582651)
(7.86746 -0.10131 0.101307)
(7.82274 -0.101584 0.101586)
(7.81454 -0.092119 0.0921133)
(7.80955 -0.083246 0.0832524)
(7.80593 -0.0737863 0.0737787)
(7.80579 -0.0637461 0.0637547)
(7.80819 -0.0542578 0.0542472)
(7.81192 -0.0458808 0.0458926)
(7.81641 -0.0385995 0.0385864)
(7.8217 -0.0322756 0.0322908)
(7.82749 -0.0269093 0.0268927)
(7.83377 -0.0223039 0.0223229)
(7.84025 -0.0184465 0.0184256)
(7.84706 -0.0151289 0.0151525)
(7.85392 -0.0123859 0.0123602)
(7.86102 -0.0100075 0.0100376)
(7.86806 -0.00810874 0.00807797)
(7.87531 -0.00647995 0.00651471)
(7.88244 -0.00520209 0.00516509)
(7.88975 -0.00405987 0.00410091)
(7.89688 -0.00319517 0.00315115)
(7.90418 -0.00238189 0.00243034)
(7.91125 -0.00181077 0.00175871)
(7.91849 -0.0012257 0.00128319)
(7.92544 -0.000861083 0.000800405)
(7.93257 -0.000419045 0.000486884)
(7.9394 -0.000198025 0.000125474)
(7.94646 0.000125575 -4.54375e-05)
(7.95314 0.000204229 -0.000290032)
(7.96008 0.000436859 -0.000336738)
(7.9666 0.000408006 -0.000506713)
(7.97342 0.000596218 -0.000466116)
(7.97977 0.000489129 -0.000593301)
(7.98646 0.000673084 -0.000485936)
(7.99264 0.000516751 -0.000592492)
(7.99923 0.000754551 -0.0004307)
(8.00529 0.000603947 -0.000531528)
(8.01186 0.0010246 -0.000319757)
(8.01792 0.00104943 -0.000410032)
(8.02471 0.00198625 -0.000131291)
(8.03131 0.00282244 -0.000205619)
(8.03888 0.00522506 0.0001819)
(8.04775 0.00959288 0.000139405)
(8.05684 0.0143457 0.000567055)
(8.07542 0.0402528 0.000527711)
(8.09073 0.0520011 0.00256495)
(8.10964 0.172846 0.00293693)
(8.12013 0.252282 0.00258393)
(7.94531 0.735615 0.0301558)
(7.73329 0.362838 0.0814719)
(7.74592 0.301558 0.116459)
(7.7596 0.241592 0.126028)
(7.76174 0.199233 0.118969)
(7.75803 0.164381 0.11207)
(7.75416 0.136698 0.104451)
(7.75105 0.115001 0.0956066)
(7.74749 0.0974059 0.0867016)
(7.7438 0.0827062 0.0784926)
(7.7399 0.0703314 0.07117)
(7.73634 0.0598006 0.0645819)
(7.73274 0.0508121 0.0586808)
(7.72951 0.0430622 0.0533945)
(7.72618 0.0363994 0.0486927)
(7.72321 0.0306195 0.0444881)
(7.72009 0.0256392 0.0407439)
(7.71728 0.0213009 0.0373885)
(7.71424 0.0175714 0.0344254)
(7.71158 0.0142534 0.0317545)
(7.70872 0.0114374 0.0294253)
(7.70621 0.00891672 0.0273064)
(7.70345 0.00681586 0.0254575)
(7.70103 0.00490563 0.0237521)
(7.69832 0.00335351 0.0222683)
(7.69595 0.0019055 0.0208775)
(7.69328 0.000780081 0.0196727)
(7.69095 -0.000301172 0.0185259)
(7.68828 -0.00106642 0.017542)
(7.68596 -0.00188765 0.0165923)
(7.68329 -0.00240803 0.0157863)
(7.68098 -0.00305102 0.0149933)
(7.67831 -0.00338453 0.0143229)
(7.67602 -0.00390503 0.013652)
(7.67336 -0.00408995 0.0130852)
(7.67109 -0.00452494 0.0125147)
(7.66846 -0.00457917 0.0120272)
(7.66624 -0.00494629 0.0115453)
(7.66373 -0.00486689 0.0111149)
(7.6617 -0.00514473 0.0107097)
(7.65951 -0.00488884 0.0103486)
(7.65821 -0.00491869 0.0100487)
(7.65662 -0.00438647 0.00976993)
(7.65908 -0.00276203 0.00956814)
(7.65944 -0.00188893 0.00938855)
(7.675 0.00442218 0.00946283)
(7.68019 0.00568528 0.00955724)
(7.74956 0.0368555 0.00892048)
(7.79517 0.0306705 0.0136824)
(8.0745 0.233061 0.0151546)
(8.47417 0.140986 0.0253282)
(7.63901 -0.345455 -6.32982e-06)
(7.67358 -0.276903 -1.24796e-05)
(7.70003 -0.21498 -5.8906e-05)
(7.70588 -0.171487 3.13162e-05)
(7.7101 -0.135352 2.85962e-05)
(7.71414 -0.106693 9.76847e-06)
(7.71856 -0.0843063 8.70175e-06)
(7.72233 -0.0663716 6.36343e-06)
(7.72553 -0.0516278 5.07733e-06)
(7.72784 -0.0394814 5.07547e-06)
(7.72981 -0.0294527 4.36257e-06)
(7.73113 -0.0210222 4.62595e-06)
(7.73233 -0.0139926 3.95957e-06)
(7.73299 -0.00803521 4.31342e-06)
(7.73363 -0.00308339 3.55705e-06)
(7.73382 0.00113154 4.09532e-06)
(7.73411 0.00459599 3.4191e-06)
(7.73408 0.00758783 4.1192e-06)
(7.73414 0.00990126 3.44998e-06)
(7.73382 0.0119315 3.95025e-06)
(7.73363 0.0134247 3.13029e-06)
(7.73313 0.0147974 3.65874e-06)
(7.73279 0.0157117 2.82629e-06)
(7.73218 0.0166287 3.45011e-06)
(7.73175 0.0171257 2.56787e-06)
(7.73108 0.0177208 3.38234e-06)
(7.7306 0.0178941 2.49521e-06)
(7.7299 0.0182603 3.31048e-06)
(7.72938 0.0182026 2.27254e-06)
(7.72866 0.0184402 3.23128e-06)
(7.72811 0.0182172 2.02618e-06)
(7.72739 0.0183785 3.05481e-06)
(7.72681 0.0180177 1.77784e-06)
(7.72609 0.0181463 2.9307e-06)
(7.72548 0.0176703 1.64039e-06)
(7.72474 0.0178085 2.94439e-06)
(7.72407 0.0172414 2.05561e-06)
(7.72324 0.0174458 2.28944e-06)
(7.72234 0.0168034 5.77413e-06)
(7.72122 0.0172267 -6.54743e-07)
(7.7197 0.0165783 1.89116e-05)
(7.71748 0.0175657 6.83571e-06)
(7.71414 0.0171996 4.35132e-05)
(7.70846 0.019581 5.55141e-05)
(7.6998 0.0203453 6.49406e-05)
(7.68612 0.0250318 0.000167817)
(7.66765 0.0287657 1.24185e-05)
(7.64444 0.0248775 -2.83888e-05)
(7.63576 0.0194267 5.69761e-06)
(7.73555 -0.156527 0.00222881)
(7.92329 0.0666361 -1.18571e-05)
(7.82343 0.114422 -1.20876e-05)
(7.78399 0.109711 -0.000312714)
(7.78286 0.0962746 1.68267e-05)
(7.78691 0.0855739 7.61344e-05)
(7.79102 0.0773946 -9.86258e-06)
(7.79745 0.06871 -3.22306e-06)
(7.80571 0.0603331 -6.93994e-06)
(7.81448 0.0529097 -6.53221e-06)
(7.82325 0.0463633 -5.82596e-06)
(7.83214 0.0406705 -5.37542e-06)
(7.84106 0.0357657 -5.01959e-06)
(7.84995 0.031555 -4.74951e-06)
(7.85876 0.0279146 -4.49805e-06)
(7.8675 0.0247739 -4.30408e-06)
(7.87619 0.0220439 -4.04108e-06)
(7.88479 0.0196827 -3.79816e-06)
(7.89337 0.0175926 -3.56902e-06)
(7.90185 0.0157455 -3.42703e-06)
(7.91033 0.0141305 -3.36103e-06)
(7.91869 0.012728 -3.2753e-06)
(7.92709 0.0115154 -3.24045e-06)
(7.93533 0.0104657 -3.09902e-06)
(7.94365 0.00956504 -3.10917e-06)
(7.95178 0.0087914 -2.9065e-06)
(7.96002 0.00815775 -3.13727e-06)
(7.96803 0.007603 -3.0521e-06)
(7.97622 0.00714433 -3.07586e-06)
(7.98413 0.00672355 -2.63191e-06)
(7.99228 0.00639309 -2.50317e-06)
(8.00005 0.00605983 -2.22798e-06)
(8.00812 0.00582131 -2.34247e-06)
(8.01575 0.0055405 -2.02909e-06)
(8.02377 0.00538347 -2.23395e-06)
(8.03123 0.00514172 -1.75295e-06)
(8.03919 0.00508004 -2.03777e-06)
(8.04646 0.00488862 -1.109e-06)
(8.05432 0.00498393 -1.611e-06)
(8.06131 0.00492561 9.68441e-08)
(8.06892 0.0053645 8.43737e-07)
(8.07536 0.00575734 3.7307e-06)
(8.08229 0.0070713 9.25299e-06)
(8.08732 0.00907085 2.48636e-05)
(8.09216 0.0121097 2.28782e-05)
(8.09189 0.0221933 8.08292e-05)
(8.09208 0.0295224 0.000116518)
(8.06376 0.05275 4.51391e-06)
(8.04718 0.0698742 -8.49653e-05)
(7.91805 0.0431577 0.000549858)
(7.78146 -0.000828568 -0.00179173)
(7.83237 1.47855e-05 -1.40364e-05)
(7.79427 7.40835e-05 -7.47234e-05)
(7.76139 -1.27833e-05 8.78482e-06)
(7.76605 -1.07306e-05 1.02808e-05)
(7.78051 -4.47024e-07 -1.57747e-06)
(7.79294 -9.63723e-06 1.21182e-05)
(7.80375 -6.27449e-06 2.98505e-06)
(7.81578 7.9902e-07 2.37196e-06)
(7.82786 -5.19964e-06 1.26963e-06)
(7.8394 3.60764e-06 1.06586e-06)
(7.85056 -5.83125e-06 9.376e-07)
(7.86135 5.10257e-06 9.34982e-07)
(7.87183 -7.30645e-06 9.15615e-07)
(7.882 6.70777e-06 9.08222e-07)
(7.89194 -9.10424e-06 9.51618e-07)
(7.90169 8.68697e-06 9.13181e-07)
(7.9113 -1.09763e-05 1.01152e-06)
(7.92078 1.1123e-05 8.542e-07)
(7.93021 -1.32456e-05 9.18646e-07)
(7.93953 1.34946e-05 6.66187e-07)
(7.9488 -1.58322e-05 7.57403e-07)
(7.95799 1.59034e-05 5.01083e-07)
(7.96716 -1.84097e-05 6.36113e-07)
(7.97626 1.8234e-05 3.87271e-07)
(7.98538 -2.06766e-05 5.69565e-07)
(7.99443 2.0287e-05 3.48443e-07)
(8.00347 -2.11795e-05 4.58348e-07)
(8.01244 2.10367e-05 2.51037e-07)
(8.02144 -1.96473e-05 3.27602e-07)
(8.03035 2.0793e-05 1.93266e-07)
(8.03932 -1.24781e-05 1.84854e-07)
(8.04817 2.16759e-05 1.93075e-07)
(8.05713 7.57527e-06 6.19592e-08)
(8.06592 3.18325e-05 3.14007e-07)
(8.07489 6.1666e-05 -1.63133e-08)
(8.08361 8.19092e-05 7.06147e-07)
(8.09259 0.000214896 9.05897e-08)
(8.10122 0.000279099 1.56872e-06)
(8.11023 0.000671115 9.80992e-07)
(8.11875 0.000990915 3.34394e-06)
(8.12779 0.00208944 3.57969e-06)
(8.13613 0.00334017 1.02344e-05)
(8.14512 0.0063778 7.27141e-06)
(8.1528 0.0111302 2.34112e-05)
(8.16069 0.0179526 1.47304e-05)
(8.16496 0.0417686 2.92015e-05)
(8.16649 0.0596578 3.81127e-05)
(8.12163 0.13354 -0.000138822)
(8.0577 0.192126 -0.000135708)
(7.8022 0.327862 -0.000672556)
(7.92332 -0.0666479 1.33434e-06)
(7.82344 -0.11417 -7.21059e-05)
(7.78381 -0.111187 -0.0002745)
(7.78275 -0.0956098 0.000133273)
(7.78688 -0.085331 0.000111891)
(7.79099 -0.0773743 7.95415e-06)
(7.79745 -0.0686975 1.30621e-05)
(7.8057 -0.0603392 7.15241e-06)
(7.81447 -0.0529068 6.53818e-06)
(7.82323 -0.0463704 6.05517e-06)
(7.83214 -0.0406656 6.06684e-06)
(7.84104 -0.0357738 5.54879e-06)
(7.84995 -0.0315485 5.52912e-06)
(7.85874 -0.0279243 5.04647e-06)
(7.86751 -0.0247659 5.03188e-06)
(7.87616 -0.0220553 4.62622e-06)
(7.88481 -0.0196729 4.60387e-06)
(7.89334 -0.0176051 4.20142e-06)
(7.90188 -0.0157336 4.13946e-06)
(7.91029 -0.0141447 3.76286e-06)
(7.91873 -0.0127145 3.80336e-06)
(7.92703 -0.0115312 3.39949e-06)
(7.93538 -0.0104509 3.51677e-06)
(7.94359 -0.00958231 3.08403e-06)
(7.95184 -0.00877575 3.30346e-06)
(7.95994 -0.00817582 2.97137e-06)
(7.9681 -0.00758633 3.51543e-06)
(7.97613 -0.00716059 2.6524e-06)
(7.98423 -0.00670581 3.14124e-06)
(7.99217 -0.00640488 1.76096e-06)
(8.00016 -0.00603863 2.77688e-06)
(8.00801 -0.00581951 1.35588e-06)
(8.01589 -0.00550436 2.718e-06)
(8.02367 -0.00534157 1.10478e-06)
(8.03145 -0.00504975 2.84655e-06)
(8.03916 -0.00491561 1.01163e-06)
(8.04685 -0.0045996 3.24213e-06)
(8.05458 -0.00443587 1.38257e-06)
(8.06226 -0.00398951 4.091e-06)
(8.07014 -0.00359296 2.04186e-06)
(8.07803 -0.00264746 6.39466e-06)
(8.08652 -0.00146837 4.15002e-06)
(8.09543 0.00121079 1.07969e-05)
(8.10533 0.00451655 3.29348e-06)
(8.11869 0.0149129 9.89737e-06)
(8.13219 0.0220892 3.42183e-06)
(8.15829 0.0773492 -3.73552e-05)
(8.17945 0.102911 -1.85306e-05)
(8.1672 0.356954 -0.000298658)
(8.10392 0.576193 -0.000296985)
(7.63898 0.34544 -7.62696e-06)
(7.67336 0.276835 -1.52634e-05)
(7.70015 0.21471 -6.37904e-05)
(7.70633 0.17158 1.26109e-05)
(7.70992 0.135425 1.19844e-05)
(7.71407 0.106697 -4.72121e-06)
(7.71854 0.0842989 -3.06858e-06)
(7.72235 0.0663784 -5.97918e-06)
(7.7255 0.0516142 -5.61293e-06)
(7.72787 0.0394914 -6.49842e-06)
(7.72978 0.0294379 -5.39862e-06)
(7.73116 0.0210352 -6.25847e-06)
(7.7323 0.0139757 -4.97395e-06)
(7.73302 0.00805112 -5.99006e-06)
(7.7336 0.00306361 -4.55763e-06)
(7.73385 -0.00111244 -5.7537e-06)
(7.73407 -0.0046189 -4.20561e-06)
(7.73411 -0.00756574 -5.71938e-06)
(7.7341 -0.00992744 -4.15112e-06)
(7.73386 -0.0119051 -5.64608e-06)
(7.73359 -0.0134552 -3.7781e-06)
(7.73316 -0.0147662 -5.43491e-06)
(7.73275 -0.0157474 -3.37583e-06)
(7.73221 -0.0165916 -5.2532e-06)
(7.7317 -0.0171678 -2.98348e-06)
(7.73112 -0.0176768 -5.19825e-06)
(7.73055 -0.0179443 -2.80421e-06)
(7.72994 -0.0182058 -5.08696e-06)
(7.72933 -0.018262 -2.43815e-06)
(7.7287 -0.0183725 -5.03479e-06)
(7.72807 -0.0182877 -2.02734e-06)
(7.72745 -0.0182915 -4.94063e-06)
(7.7268 -0.0180977 -1.56572e-06)
(7.7262 -0.018026 -4.89119e-06)
(7.72555 -0.0177473 -1.05245e-06)
(7.725 -0.0176167 -4.83889e-06)
(7.72439 -0.0172664 2.32052e-08)
(7.72405 -0.0170473 -5.26681e-06)
(7.72346 -0.0166389 -1.9339e-06)
(7.72375 -0.0160638 -2.81164e-06)
(7.72371 -0.0155604 1.74972e-09)
(7.72602 -0.0143683 2.0763e-06)
(7.727 -0.0133468 -5.48078e-06)
(7.73594 -0.0102206 8.36716e-06)
(7.73926 -0.00785037 -3.77323e-06)
(7.7745 0.0037862 -2.21154e-06)
(7.78676 0.0106861 -1.9362e-05)
(7.94577 0.0685346 -6.06632e-05)
(8.01047 0.107023 -1.55784e-05)
(8.65931 0.521371 -5.76002e-06)
(7.73327 -0.362873 -0.0814897)
(7.74584 -0.301599 -0.116474)
(7.75972 -0.242156 -0.126375)
(7.76176 -0.199003 -0.118827)
(7.75809 -0.16423 -0.111966)
(7.75407 -0.136693 -0.104457)
(7.75113 -0.115023 -0.0956008)
(7.7474 -0.0973808 -0.0866983)
(7.74389 -0.0827389 -0.0784947)
(7.7398 -0.0702981 -0.0711662)
(7.73644 -0.0598383 -0.0645851)
(7.73264 -0.0507711 -0.0586761)
(7.72962 -0.0431073 -0.0533989)
(7.72608 -0.0363504 -0.048687)
(7.72332 -0.0306736 -0.0444941)
(7.71997 -0.0255809 -0.040737)
(7.71741 -0.0213655 -0.037396)
(7.71412 -0.0175016 -0.0344157)
(7.71172 -0.0143295 -0.0317634)
(7.70858 -0.0113547 -0.0294142)
(7.70636 -0.00900683 -0.0273169)
(7.7033 -0.00671796 -0.0254449)
(7.70119 -0.00501239 -0.0237644)
(7.69816 -0.00323756 -0.0222542)
(7.69612 -0.00203231 -0.0208915)
(7.69311 -0.000643623 -0.0196573)
(7.69113 0.000148234 -0.018541)
(7.6881 0.00123347 -0.0175252)
(7.68614 0.00170439 -0.0166083)
(7.6831 0.00261027 -0.0157693)
(7.68117 0.00283392 -0.015009)
(7.6781 0.00363175 -0.0143073)
(7.67619 0.00365163 -0.0136655)
(7.67309 0.00440097 -0.0130742)
(7.67118 0.00424328 -0.0125229)
(7.66804 0.00499848 -0.0120253)
(7.66607 0.00468252 -0.0115398)
(7.66282 0.00551124 -0.011127)
(7.66064 0.00506842 -0.010683)
(7.65707 0.00608641 -0.0103611)
(7.65422 0.00561699 -0.00992036)
(7.64963 0.00710526 -0.00969938)
(7.64484 0.00701584 -0.00924885)
(7.63672 0.00971869 -0.00907954)
(7.62711 0.010845 -0.00873313)
(7.60903 0.0158416 -0.00885662)
(7.59162 0.0198732 -0.00801024)
(7.55714 0.0167732 -0.0128365)
(7.54791 0.00345851 -0.018354)
(7.61531 -0.154129 -0.0470493)
(7.99715 0.0582424 -0.0582355)
(7.8668 0.101327 -0.10133)
(7.82303 0.101651 -0.101656)
(7.81526 0.0920673 -0.092068)
(7.80935 0.083212 -0.0832154)
(7.80575 0.073784 -0.0737822)
(7.80581 0.0637476 -0.0637514)
(7.80819 0.0542471 -0.0542447)
(7.81193 0.0458865 -0.0458909)
(7.81642 0.0385875 -0.0385841)
(7.82171 0.0322843 -0.0322888)
(7.8275 0.0268953 -0.026891)
(7.83377 0.0223156 -0.0223206)
(7.84026 0.0184298 -0.0184249)
(7.84706 0.0151437 -0.01515)
(7.85394 0.0123661 -0.0123605)
(7.86101 0.0100259 -0.0100344)
(7.86809 0.00808537 -0.00807888)
(7.87529 0.00650307 -0.00650991)
(7.88247 0.00517475 -0.0051679)
(7.88972 0.00408765 -0.0040946)
(7.89692 0.00316307 -0.0031561)
(7.90415 0.00241474 -0.0024222)
(7.9113 0.00177339 -0.0017661)
(7.91844 0.00126412 -0.00127297)
(7.9255 0.000817635 -0.000810642)
(7.93252 0.000463005 -0.000473682)
(7.93948 0.000151718 -0.000139222)
(7.94638 -7.43216e-05 6.20231e-05)
(7.95323 -0.000252262 0.000271801)
(7.95998 -0.000374751 0.000358121)
(7.9667 -0.000450624 0.000483119)
(7.97328 -0.000509784 0.000493179)
(7.97986 -0.000502124 0.000562914)
(7.98625 -0.000518708 0.000519964)
(7.99267 -0.000420688 0.000553403)
(7.99884 -0.000389804 0.000474067)
(8.00504 -0.000144508 0.000483379)
(8.01089 9.01956e-06 0.000379264)
(8.01672 0.000602124 0.000371372)
(8.02203 0.00116334 0.000262559)
(8.02704 0.00273532 0.000231543)
(8.03102 0.00441026 0.000173311)
(8.0332 0.0101155 0.000157937)
(8.03427 0.014953 -3.52918e-05)
(8.02075 0.0321512 0.000359653)
(8.01709 0.0434436 -0.00118268)
(7.94153 0.0663805 -0.00192222)
(7.9 0.0617779 -0.00708689)
(7.59915 -0.0436316 -0.0193447)
(7.92329 1.24099e-05 -0.0666297)
(7.82343 1.16492e-05 -0.114427)
(7.78399 0.000306183 -0.109704)
(7.78286 -1.63442e-05 -0.0962741)
(7.78691 -8.01719e-05 -0.0855789)
(7.79102 1.39206e-05 -0.0773904)
(7.79745 -2.91519e-06 -0.0687155)
(7.80571 1.27974e-05 -0.0603283)
(7.81448 -1.09765e-06 -0.0529152)
(7.82325 1.42267e-05 -0.046357)
(7.83214 -4.20743e-06 -0.0406772)
(7.84106 1.59525e-05 -0.0357583)
(7.84996 -7.4997e-06 -0.0315631)
(7.85875 1.82788e-05 -0.0279061)
(7.86751 -1.11634e-05 -0.0247836)
(7.87617 2.12337e-05 -0.0220343)
(7.88481 -1.51066e-05 -0.0196942)
(7.89335 2.48074e-05 -0.0175812)
(7.90188 -1.9451e-05 -0.0157582)
(7.9103 2.88745e-05 -0.0141164)
(7.91873 -2.42603e-05 -0.0127433)
(7.92705 3.33208e-05 -0.0114986)
(7.93538 -2.95002e-05 -0.0104843)
(7.9436 3.81976e-05 -0.00954497)
(7.95184 -3.48324e-05 -0.0088144)
(7.95995 4.42095e-05 -0.00813355)
(7.96811 -3.83675e-05 -0.00763057)
(7.97614 4.79474e-05 -0.00711245)
(7.98423 -4.10711e-05 -0.00675696)
(7.99217 5.26187e-05 -0.00635171)
(8.00018 -4.19031e-05 -0.00610014)
(8.00799 6.10144e-05 -0.00576397)
(8.01592 -3.2344e-05 -0.00558383)
(8.02361 8.19998e-05 -0.0052944)
(8.03147 6.66474e-06 -0.00517046)
(8.03903 0.000147348 -0.00491497)
(8.04682 0.000136674 -0.00483683)
(8.05426 0.000364055 -0.00460892)
(8.06199 0.000558807 -0.00456833)
(8.06929 0.00109246 -0.00436925)
(8.07694 0.00192404 -0.00436)
(8.08405 0.00340944 -0.00418588)
(8.09149 0.0063311 -0.00419845)
(8.098 0.0101591 -0.00396745)
(8.10439 0.0225474 -0.00385468)
(8.10914 0.0328118 -0.00357204)
(8.0957 0.0789451 -0.00471644)
(8.0805 0.111742 -0.000768554)
(7.94336 0.22477 -0.0201038)
(7.75745 0.318991 -0.0150551)
(7.99714 -0.0582439 -0.0582467)
(7.86713 -0.101284 -0.101365)
(7.82284 -0.101672 -0.101573)
(7.81488 -0.0920699 -0.0921285)
(7.80945 -0.083213 -0.0832554)
(7.80585 -0.0737943 -0.0737778)
(7.8058 -0.0637437 -0.0637536)
(7.8082 -0.0542563 -0.0542452)
(7.81193 -0.0458785 -0.0458907)
(7.81642 -0.0385966 -0.0385836)
(7.82171 -0.0322725 -0.0322882)