/*--------------------------------*- C++ -*----------------------------------*\
| =========                 |                                                 |
| \\      /  F ield         | OpenFOAM: The Open Source CFD Toolbox           |
|  \\    /   O peration     | Version:                                        |
|   \\  /    A nd           | Website:  www.openfoam.com                      |
|    \\/     M anipulation  |                                                 |
\*---------------------------------------------------------------------------*/
FoamFile
{
    version     2.0;
    format      ascii;
    class       volScalarField;
    location    "1.5";
    object      epsilon;
}
// * * * * * * * * * * * * * * * * * * * * * * * * * * * * * * * * * * * * * //

dimensions      [0 2 -3 0 0 0 0];


internalField   nonuniform List<scalar> 
3850
(
17.5043
18.1167
18.7549
19.3964
20.0361
20.665
21.3004
21.9235
22.5504
23.1618
23.7753
24.3707
24.9671
25.543
26.1188
26.6724
27.2249
27.7536
28.2808
28.7828
29.2828
29.7567
30.2283
30.6733
31.1157
31.5313
31.9442
32.3305
32.7138
33.0711
33.425
33.7541
34.0792
34.3809
34.6777
34.9535
35.2225
35.474
35.7157
35.9445
36.1593
36.3668
36.5541
36.7407
36.8975
37.0607
37.1772
37.3159
37.3642
37.543
19.499
20.1785
20.833
21.4582
22.0655
22.6495
23.2204
23.7721
24.3132
24.836
25.3496
25.8456
26.3334
26.804
27.2674
27.7139
28.1538
28.5771
28.9941
29.3944
29.789
30.1671
30.5399
30.8963
31.2479
31.5832
31.9145
32.2291
32.541
32.8351
33.1284
33.4023
33.6783
33.9322
34.1916
34.4262
34.6698
34.8858
35.114
35.3124
35.5259
35.7065
35.907
36.0681
36.2558
36.3968
36.5566
36.6804
36.7455
36.8102
18.8096
19.5108
20.1923
20.8472
21.4845
22.0981
22.6979
23.2762
23.8433
24.3897
24.9268
25.4434
25.9522
26.4405
26.9224
27.3834
27.8394
28.2742
28.7053
29.1147
29.5217
29.9065
30.2902
30.6513
31.0127
31.3508
31.6911
32.0068
32.3269
32.6211
32.9224
33.1958
33.4796
33.7328
34.0006
34.234
34.487
34.7013
34.9405
35.1365
35.3635
35.5406
35.7582
35.9146
36.1262
36.2585
36.4624
36.5534
36.731
36.6207
19.4991
20.1783
20.8331
21.458
22.0657
22.6493
23.2206
23.7718
24.3135
24.8356
25.3501
25.845
26.334
26.8033
27.2683
27.7129
28.1549
28.5758
28.9955
29.3928
29.7908
30.1651
30.542
30.8939
31.2505
31.5803
31.9175
32.2258
32.5445
32.8313
33.1324
33.3982
33.6826
33.9277
34.1965
34.4211
34.6755
34.8799
35.1211
35.3055
35.5351
35.6996
35.9195
36.0641
36.2784
36.4048
36.6158
36.7463
36.9512
36.9759
17.503
18.1184
18.7535
19.3983
20.0345
20.6669
21.2987
21.9255
22.5486
23.164
23.7733
24.3731
24.9649
25.5456
26.1165
26.6751
27.2224
27.7565
28.278
28.7859
29.2798
29.76
30.2251
30.6768
31.1122
31.5352
31.9404
32.3347
32.7096
33.0757
33.4204
33.7591
34.0741
34.3864
34.6723
34.9595
35.217
35.4806
35.7106
35.9524
36.1562
36.3787
36.5572
36.7658
36.9192
37.1282
37.2577
37.5219
37.6604
38.0654
19.4982
20.1795
20.8321
21.4595
22.0644
22.651
23.2191
23.7738
24.3116
24.838
25.3477
25.8478
26.3312
26.8066
27.265
27.7167
28.151
28.5801
28.9909
29.3979
29.7853
30.1711
30.5357
30.9009
31.2431
31.5886
31.9088
32.2354
32.5342
32.8426
33.1203
33.4114
33.6684
33.9431
34.1798
34.4391
34.6558
34.9008
35.0977
35.3294
35.5066
35.7256
35.8826
36.0887
36.2241
36.406
36.5581
36.7291
36.7512
36.1351
2.31318
3.12715
3.7244
4.21049
4.6262
4.9889
5.30825
5.59266
5.84685
6.07644
6.28297
6.4714
6.64103
6.79726
6.93724
7.06763
7.18321
7.29265
7.38882
7.48302
7.56379
7.64533
7.7127
7.78367
7.83929
7.90142
7.94682
8.00185
8.03838
8.08729
8.11621
8.15995
8.18273
8.22197
8.2402
8.2753
8.29067
8.32232
8.33604
8.36551
8.37905
8.40979
8.42818
8.46923
8.50052
8.58172
8.63898
8.78866
8.80207
9.06075
2.00927
2.53618
2.96198
3.32193
3.65463
3.95845
4.2359
4.4876
4.71834
4.92932
5.12475
5.30236
5.46729
5.6162
5.75479
5.87875
5.99441
6.09651
6.19191
6.27446
6.35228
6.41799
6.4808
6.5321
6.58213
6.62106
6.6602
6.68867
6.7186
6.7384
6.76051
6.77315
6.78843
6.79522
6.80445
6.80687
6.81023
6.80977
6.8078
6.80421
6.79975
6.79318
6.78809
6.77773
6.77372
6.75983
6.76846
6.73059
6.93735
7.05579
2.31317
3.12715
3.72442
4.21044
4.62625
4.9888
5.30836
5.5925
5.84704
6.07618
6.28328
6.471
6.64151
6.79666
6.93795
7.06676
7.18423
7.2914
7.39017
7.48144
7.56553
7.64334
7.71489
7.78122
7.84197
7.89849
7.94994
7.9985
8.04192
8.08356
8.12004
8.15594
8.18661
8.21784
8.2436
8.2711
8.29263
8.31693
8.33475
8.35567
8.36928
8.38516
8.39087
8.3993
8.39955
8.38723
8.37154
8.33356
8.21479
8.87238
19.4981
20.1796
20.832
21.4595
22.0644
22.651
23.219
23.7738
24.3116
24.8379
25.3478
25.8477
26.3314
26.8064
27.2652
27.7165
28.1513
28.5799
28.9913
29.3975
29.7859
30.1705
30.5364
30.9002
31.2439
31.5878
31.9097
32.2345
32.5352
32.8417
33.1215
33.4103
33.6698
33.9417
34.1816
34.4375
34.658
34.8993
35.1006
35.3286
35.5112
35.7277
35.8922
36.0937
36.228
36.3795
36.4284
36.3748
35.6078
35.1906
18.8084
19.5122
20.1912
20.8491
21.483
22.1002
22.696
23.2786
23.841
24.3925
24.9241
25.4467
25.949
26.4443
26.9187
27.3878
27.8351
28.2791
28.7003
29.1203
29.516
29.9128
30.2837
30.6585
31.0053
31.359
31.6825
32.0163
32.3169
32.632
32.9108
33.2085
33.4661
33.7477
33.9846
34.2514
34.4682
34.7215
34.9185
35.1595
35.337
35.5666
35.7243
35.9424
36.0793
36.2783
36.4148
36.6172
36.6651
36.0277
2.00924
2.53619
2.96236
3.31957
3.65401
3.95866
4.23561
4.48798
4.71794
4.92981
5.12423
5.30299
5.46662
5.61699
5.75397
5.87972
5.99339
6.09767
6.19069
6.27583
6.35084
6.41957
6.47915
6.5339
6.58025
6.62307
6.65811
6.69085
6.71638
6.74068
6.75828
6.7754
6.78638
6.79727
6.80297
6.80843
6.81027
6.8109
6.80983
6.80856
6.80612
6.80717
6.81049
6.81673
6.84394
6.87877
6.93033
7.0314
6.94243
7.04815
1.65415
1.78274
1.95964
2.15477
2.35158
2.54307
2.72663
2.89999
3.06263
3.214
3.35493
3.48501
3.6054
3.71562
3.81704
3.90902
3.99311
4.06847
4.13687
4.19714
4.25136
4.29807
4.33963
4.37428
4.40461
4.42862
4.44905
4.46377
4.47553
4.48223
4.48644
4.48621
4.48284
4.47773
4.47052
4.45887
4.44691
4.43137
4.41509
4.39663
4.3764
4.3561
4.33222
4.31225
4.28508
4.26922
4.24312
4.2315
4.32352
4.31618
2.0092
2.53624
2.9623
3.31964
3.65393
3.95874
4.2355
4.4881
4.7178
4.92996
5.12405
5.30318
5.4664
5.61722
5.75369
5.88001
5.99306
6.09803
6.19026
6.27628
6.35033
6.42013
6.47853
6.53456
6.57954
6.62384
6.65732
6.69167
6.71553
6.74151
6.75743
6.77613
6.78555
6.79773
6.80207
6.80819
6.80885
6.80848
6.80593
6.80051
6.79404
6.78078
6.76485
6.73217
6.69361
6.63661
6.56598
6.51392
6.11566
6.60285
18.8085
19.5119
20.1914
20.8488
21.4832
22.0999
22.6963
23.2782
23.8414
24.392
24.9246
25.446
25.9497
26.4434
26.9196
27.3867
27.8363
28.2779
28.7017
29.1187
29.5177
29.9109
30.2858
30.6562
31.0078
31.3563
31.6855
32.013
32.3206
32.6282
32.9152
33.2038
33.4714
33.742
33.991
34.2447
34.4759
34.7139
34.928
35.1515
35.3494
35.5604
35.7429
35.9457
36.1127
36.2938
36.351
36.4011
35.3564
35.4731
19.4984
20.1792
20.8324
21.4591
22.0648
22.6505
23.2195
23.7733
24.312
24.8375
25.3482
25.8473
26.3317
26.8061
27.2654
27.7162
28.1515
28.5797
28.9914
29.3975
29.7858
30.1706
30.5362
30.9003
31.2436
31.588
31.9094
32.2347
32.5348
32.842
33.1209
33.4108
33.6689
33.9427
34.1801
34.4389
34.6558
34.901
35.0972
35.3302
35.5053
35.7276
35.8794
36.0937
36.2149
36.429
36.488
36.7766
36.6017
36.7663
2.31321
3.1271
3.72446
4.21041
4.62627
4.98881
5.30835
5.59254
5.84697
6.07628
6.28312
6.47121
6.64122
6.79703
6.93748
7.06735
7.1835
7.29229
7.38918
7.48257
7.56427
7.64474
7.71336
7.78288
7.84018
7.90038
7.94796
8.00057
8.03974
8.08584
8.11767
8.1585
8.18407
8.22077
8.24116
8.27459
8.29109
8.32188
8.33609
8.36528
8.37915
8.40976
8.42726
8.47074
8.49664
8.58515
8.64681
8.77001
8.80891
9.01418
2.00925
2.5362
2.96197
3.32191
3.65462
3.95843
4.2359
4.48759
4.71834
4.92931
5.12474
5.30236
5.46727
5.61621
5.75477
5.87877
5.99438
6.09653
6.19188
6.27448
6.35226
6.41799
6.48081
6.53207
6.58217
6.62099
6.66028
6.68854
6.71874
6.73823
6.76069
6.77297
6.78858
6.79512
6.8045
6.80685
6.81032
6.80968
6.80752
6.80424
6.80075
6.7929
6.7886
6.77759
6.77358
6.75979
6.76923
6.77493
6.91019
6.8506
2.31319
3.12714
3.72443
4.21043
4.62626
4.98879
5.30838
5.59248
5.84706
6.07615
6.28331
6.47097
6.64153
6.79663
6.93797
7.06674
7.18424
7.2914
7.39017
7.48144
7.56552
7.64336
7.71486
7.78125
7.84195
7.8985
7.94995
7.99846
8.04199
8.08345
8.12019
8.15573
8.18687
8.2175
8.24401
8.27064
8.29312
8.31651
8.33507
8.35558
8.3694
8.38538
8.39109
8.39959
8.40455
8.38489
8.37092
8.34587
8.18997
8.88725
19.4981
20.1796
20.832
21.4596
22.0644
22.651
23.2191
23.7738
24.3117
24.8378
25.3479
25.8476
26.3316
26.8062
27.2654
27.7162
28.1516
28.5796
28.9916
29.3972
29.7862
30.1703
30.5366
30.9
31.2441
31.5876
31.9099
32.2343
32.5354
32.8414
33.1217
33.41
33.6701
33.9415
34.1817
34.4374
34.658
34.8993
35.1004
35.3291
35.5101
35.7298
35.8881
36.1009
36.2157
36.3953
36.4233
36.4914
35.5146
35.5115
17.5044
18.1165
18.755
19.3962
20.0362
20.6648
21.3005
21.9233
22.5506
23.1616
23.7754
24.3705
24.9672
25.5428
26.119
26.6722
27.2251
27.7535
28.2809
28.7826
29.2829
29.7565
30.2285
30.673
31.1159
31.5311
31.9444
32.3302
32.714
33.0708
33.4253
33.7539
34.0794
34.3808
34.6779
34.9534
35.2226
35.4739
35.7158
35.9445
36.1594
36.3669
36.5541
36.7408
36.8973
37.061
37.1765
37.3208
37.3405
37.6176
19.4992
20.1781
20.8333
21.4578
22.0658
22.6491
23.2207
23.7718
24.3134
24.8357
25.3499
25.8452
26.3337
26.8037
27.2677
27.7135
28.1541
28.5766
28.9945
29.3939
29.7895
30.1664
30.5406
30.8954
31.2489
31.5821
31.9157
32.2277
32.5424
32.8336
33.13
33.4009
33.6797
33.9309
34.1929
34.4251
34.6708
34.885
35.1147
35.312
35.5258
35.7074
35.905
36.0715
36.2512
36.4018
36.5509
36.684
36.735
36.7759
18.8097
19.5106
20.1925
20.847
21.4846
22.0979
22.698
23.276
23.8434
24.3896
24.9269
25.4433
25.9523
26.4405
26.9224
27.3835
27.8394
28.2743
28.7053
29.1147
29.5217
29.9065
30.2903
30.6511
31.013
31.3505
31.6915
32.0064
32.3275
32.6204
32.9232
33.195
33.4806
33.7319
34.0015
34.2332
34.4877
34.7008
34.9411
35.1362
35.3631
35.5418
35.7556
35.9188
36.1198
36.2673
36.4502
36.57
36.7039
36.6199
19.4991
20.1783
20.8332
21.4579
22.0658
22.6492
23.2207
23.7717
24.3136
24.8355
25.3501
25.8449
26.3341
26.8032
27.2684
27.7129
28.155
28.5757
28.9956
29.3927
29.7909
30.165
30.5422
30.8937
31.2508
31.5801
31.9179
32.2254
32.545
32.8308
33.133
33.3976
33.6833
33.927
34.1973
34.4204
34.6762
34.8792
35.1218
35.3049
35.5357
35.6992
35.9197
36.0642
36.278
36.4055
36.6156
36.7448
36.9507
36.9604
17.503
18.1184
18.7535
19.3983
20.0345
20.6669
21.2987
21.9255
22.5486
23.164
23.7733
24.3731
24.9649
25.5456
26.1165
26.6751
27.2224
27.7566
28.278
28.786
29.2797
29.7601
30.225
30.677
31.1121
31.5353
31.9403
32.3348
32.7096
33.0757
33.4205
33.7592
34.0741
34.3866
34.6721
34.9599
35.2166
35.4813
35.7099
35.9534
36.155
36.3804
36.555
36.7689
36.9154
37.1319
37.2569
37.5164
37.6726
38.0704
37.4097
36.7088
37.1613
46.6376
36.1636
35.2622
36.1045
46.4416
36.625
34.9624
36.7628
46.1825
36.7865
36.0863
40.2007
49.8314
38.618
38.438
41.8665
56.52
32.1422
31.9425
91.2453
138.106
10.532
16.2548
101.394
142.966
8.18582
19.218
84.7775
152.465
9.29428
25.3574
125.902
193.917
28.3866
34.1237
145.184
225.961
31.8217
30.1566
96.5948
168.234
7.85559
15.5307
109.031
177.481
6.1343
16.6912
95.5405
193.297
7.33643
24.0667
143.746
248.711
28.2227
34.1569
156.712
288.936
33.0306
32.0239
91.5326
139.116
9.63837
18.0275
100.561
144.778
8.94378
17.9798
85.1602
153.685
9.80586
24.8027
125.85
193.342
28.7969
34.1119
145
225.464
37.3626
36.6978
37.2596
46.6514
36.267
35.306
36.4206
46.5579
36.5603
35.1422
36.9002
45.978
36.7729
36.1252
40.0871
50.1218
38.6134
38.4172
41.7727
56.33
5.50589
17.0406
23.8818
24.3515
5.75113
18.3177
25.8032
26.236
5.85989
18.7921
26.5165
26.9229
6.08952
19.9094
28.1548
28.4938
6.23445
20.6287
29.2231
29.4925
6.48096
21.8099
30.9618
31.1385
6.66545
22.7364
32.3269
32.3728
6.93462
24.0289
34.2412
34.1444
7.16291
25.1746
35.9257
35.6209
7.46286
26.6282
38.0704
37.5516
7.74009
28.0201
40.1068
39.2813
8.08073
29.6858
42.5477
41.3986
8.41407
31.3599
44.9821
43.3895
8.80745
33.2953
47.7918
45.7136
9.20705
35.3004
50.6815
47.9664
9.66799
37.5721
53.9387
50.5046
10.1479
39.971
57.3508
53.0054
10.6947
42.6561
61.1379
55.7429
11.2741
45.5257
65.1445
58.4522
11.9302
48.7133
69.5418
61.3396
12.6347
52.1443
74.2109
64.1784
13.4305
55.9337
79.2828
67.1026
14.2949
60.0261
84.6579
69.8976
15.2706
64.5204
90.4298
72.6512
16.3404
69.3713
96.4993
75.1519
17.545
74.6571
102.916
77.4396
18.8667
80.3268
109.558
79.3036
20.3442
86.4235
116.416
80.7595
21.9749
92.8737
123.311
81.4701
23.8224
99.6684
130.15
81.7539
25.9561
106.654
136.608
81.6105
28.5313
113.688
142.368
80.4679
31.6494
120.501
146.947
79.0948
35.1714
126.773
149.169
77.193
38.9928
132.428
150.047
74.8827
42.7816
136.903
148.878
71.8562
46.8551
139.893
143.766
68.7819
50.3613
141.707
135.638
65.379
52.8439
142.248
124.022
62.0259
54.5524
141.048
111.168
58.6445
55.0621
136.948
96.1071
55.2923
54.6737
131.595
80.603
52.5114
53.5751
124.278
66.6138
50.1123
51.4356
117.66
53.3414
48.212
48.1317
115.949
43.643
46.5693
43.8518
115.499
37.6591
45.0692
39.6591
93.1707
34.6464
44.0124
35.7234
37.9014
32.1202
43.4719
27.3395
26.2246
31.5534
43.8579
28.3507
32.3877
35.7405
46.0475
11.3272
16.9145
17.7263
15.5666
12.0275
18.4962
19.6034
17.339
12.3466
19.1335
20.3624
18.0334
13.001
20.5024
21.9877
19.5749
13.4371
21.4881
23.1699
20.6648
14.134
22.9411
24.9063
22.331
14.6977
24.213
26.4428
23.7548
15.4614
25.8444
28.4059
25.6462
16.1605
27.4202
30.3222
27.4347
17.0211
29.3079
32.6101
29.6376
17.8695
31.2338
34.9657
31.848
18.8611
33.461
37.685
34.4572
19.8817
35.8068
40.5705
37.1698
21.0432
38.4712
43.8476
40.2952
22.27
41.3352
47.3882
43.6142
23.6482
44.5598
51.3789
47.3841
25.1281
48.0745
55.7408
51.4378
26.7819
52.0187
60.6426
55.9991
28.5789
56.3625
66.0493
60.9369
30.5848
61.2365
72.1257
66.4505
32.7854
66.6481
78.8661
72.4293
35.2458
72.7321
86.4461
79.0529
37.9687
79.5343
94.8967
86.2163
41.0244
87.206
104.413
94.0661
44.4357
95.8363
115.068
102.476
48.2801
105.606
127.091
111.535
52.6013
116.653
140.609
121.05
57.4915
129.197
155.919
130.994
63.0219
143.424
173.249
141.03
69.3244
159.575
192.838
151.079
76.576
177.854
214.783
160.746
84.9918
198.43
239.291
169.723
95.3704
221.401
266.333
177.475
107.467
246.726
295.85
183.054
120.845
274.093
327.439
186.522
135.031
302.779
360.458
187.197
149.574
331.878
393.206
184.89
163.552
359.986
423.505
178.133
175.88
385.035
448.06
167.674
186.367
405.415
460.766
153.531
192.124
419.955
464.326
136.112
191.584
428.41
447.598
117.504
186.906
433.227
405.881
100.164
172.023
436.554
338.593
86.2354
154.625
429.976
257.103
76.1529
137.401
414.969
182.345
68.8795
123.057
381.325
115.132
66.0704
94.9005
205.896
70.8261
67.4527
59.976
67.1653
53.3282
77.9772
32.1223
32.9244
52.5583
106.32
13.1243
16.7525
16.7173
14.539
13.9553
18.3266
18.4867
16.2151
14.3343
18.9759
19.2213
16.8884
15.1055
20.3339
20.7563
18.3568
15.6247
21.3339
21.9005
19.4199
16.4431
22.7726
23.5358
21.0108
17.1133
24.0578
25.0214
22.4092
18.0086
25.6744
26.8735
24.2267
18.8374
27.2597
28.7218
25.9931
19.8454
29.1322
30.8883
28.1302
20.8475
31.0627
33.1564
30.3269
22.0076
33.2732
35.7417
32.8876
23.209
35.6183
38.5189
35.6052
24.5662
38.2635
41.6467
38.7127
26.006
41.1209
45.0577
42.0726
27.6142
44.3224
48.8832
45.8764
29.3462
47.824
53.0975
50.0346
31.2725
51.7398
57.8238
54.7163
33.3696
56.0622
63.0591
59.865
35.7008
60.9006
68.9328
65.6405
38.2611
66.2833
75.4864
72.0109
41.1135
72.3257
82.8592
79.127
44.271
79.0927
91.1265
86.9696
47.8013
86.7186
100.455
95.6756
51.7354
95.3107
110.962
105.219
56.14
105.035
122.854
115.702
61.0811
116.049
136.304
127.054
66.6525
128.564
151.572
139.291
72.94
142.791
168.899
152.227
80.0692
158.983
188.607
165.698
88.1818
177.377
210.955
179.321
97.6235
198.199
236.013
192.847
109.486
221.645
263.984
205.465
123.24
247.708
294.912
216.269
138.437
276.158
328.499
224.305
154.639
306.317
363.982
227.565
171.025
337.127
400.14
228.31
186.841
367.398
434.418
222.466
200.889
395.261
464.008
210.575
212.793
418.77
483.328
193.2
219.521
436.473
490.966
171.218
218.939
448.213
481.03
146.391
213.545
454.574
443.096
123.022
198.043
454.867
375.455
103.602
181.518
446.526
291.514
87.027
162.334
430.26
205.315
77.4024
144.638
396.001
126.267
72.3784
109.343
214.932
78.8234
72.5706
67.5053
70.7131
55.2252
85.0968
34.5373
33.2538
53.5314
120.872
11.3371
16.9259
17.7376
15.572
12.0381
18.5091
19.6159
17.3444
12.3577
19.147
20.3757
18.0393
13.0128
20.5166
22.0015
19.5801
13.4495
21.5035
23.185
20.6706
14.1472
22.9577
24.9224
22.3365
14.7118
24.2308
26.4603
23.7606
15.4766
25.8637
28.4247
25.652
16.1768
27.441
30.3425
27.4408
17.0388
29.3304
32.6321
29.6437
17.8884
31.258
34.9892
31.8544
18.8817
33.487
37.7103
34.4638
19.904
35.8347
40.5977
37.1767
21.0674
38.501
43.8769
40.3024
22.2961
41.367
47.4194
43.6217
23.6766
44.5937
51.4124
47.3916
25.1589
48.1106
55.7768
51.445
26.8153
52.0572
60.6814
56.0056
28.6151
56.4035
66.0909
60.9418
30.6242
61.2806
72.1707
66.4533
32.8283
66.6954
78.9145
72.4287
35.2926
72.7833
86.4985
79.049
38.0197
79.5898
94.9537
86.2064
41.0803
87.2669
104.476
94.0492
44.4973
95.904
115.138
102.45
48.3472
105.682
127.168
111.496
52.675
116.738
140.696
120.996
57.5729
129.293
156.018
130.923
63.1127
143.533
173.363
140.937
69.4257
159.7
192.972
150.962
76.6863
177.999
214.938
160.605
85.1088
198.605
239.474
169.557
95.4991
221.608
266.546
177.289
107.619
246.973
296.102
182.89
121.025
274.385
327.719
186.343
135.254
303.134
360.766
187.042
149.85
332.294
393.534
184.799
163.867
360.46
423.84
178.111
176.252
385.579
448.371
167.737
186.79
406.048
461.04
153.654
192.639
420.693
464.582
136.274
192.107
429.265
447.82
117.649
187.431
434.18
406.156
100.264
172.491
437.435
339.036
86.2381
155.016
430.55
257.606
76.1103
137.663
415.257
182.728
68.863
123.213
381.367
115.068
65.9626
94.8725
206.373
71.0249
67.2253
59.7809
67.4698
52.8387
77.6958
31.9421
32.2695
51.6108
106.117
5.52831
17.0823
23.9163
24.3669
5.77481
18.3618
25.8391
26.2505
5.88411
18.837
26.5531
26.9376
6.11489
19.9564
28.1926
28.5074
6.26048
20.6768
29.2618
29.5054
6.50818
21.8602
31.0022
31.1505
6.69347
22.7878
32.3688
32.3839
6.96395
24.0821
34.2855
34.1544
7.19328
25.2301
35.9706
35.6303
7.49459
26.6862
38.1174
37.56
7.77302
28.0804
40.1548
39.2892
8.11509
29.7487
42.5978
41.4056
8.44976
31.4251
45.0333
43.3959
8.84464
33.363
47.8448
45.7193
9.24567
35.3703
50.7354
47.9715
9.70815
37.6442
53.9939
50.5092
10.1895
40.0447
57.4064
53.0092
10.7378
42.7314
61.194
55.7458
11.3184
45.6019
65.2002
58.4538
11.9759
48.7902
69.5969
61.3395
12.6815
52.2211
74.2644
64.1755
13.4785
56.0102
79.3346
67.0887
14.3436
60.1018
84.7079
69.8763
15.32
64.5952
90.4779
72.6177
16.39
69.4449
96.5463
75.1096
17.5942
74.7297
102.963
77.388
18.9146
80.3985
109.607
79.25
20.3907
86.4947
116.468
80.6868
22.0197
92.9457
123.369
81.4302
23.8642
99.7427
130.217
81.7026
25.995
106.733
136.691
81.5735
28.5626
113.775
142.478
80.4529
31.6766
120.599
146.991
79.1075
35.2028
126.888
149.383
77.2369
39.0247
132.56
150.198
74.9469
42.8157
137.063
149.076
71.9521
46.8909
140.073
143.987
68.8967
50.4052
141.912
135.893
65.5136
52.892
142.469
124.289
62.172
54.6057
141.318
111.445
58.7931
55.1288
137.266
96.3791
55.4327
54.7438
131.962
80.8606
52.6279
53.6493
124.703
66.8414
50.1954
51.5164
118.003
53.5252
48.2454
48.1821
116.078
43.7701
46.5355
43.9068
115.228
37.7269
44.9671
39.7007
92.697
34.6956
43.8936
35.7479
37.8454
32.1295
43.3356
27.3725
26.2356
31.5873
43.6643
28.3571
32.3854
35.7482
45.8359
23.5976
25.1407
25.6931
26.9552
27.7297
29.0414
29.9699
31.3628
32.4458
33.9339
35.1736
36.7667
38.1624
39.865
41.4102
43.2186
44.8979
46.797
48.5824
50.5415
52.389
54.3595
56.2074
58.1239
59.8974
61.6853
63.3083
64.9011
66.3187
67.6905
68.8979
70.0793
71.1252
72.1139
73.051
73.8771
74.7145
75.3423
75.8699
76.1899
76.275
76.1211
75.5619
74.7865
73.6117
72.1049
70.2791
68.7426
68.0314
67.4107
29.3331
31.7425
32.6287
34.6924
36.0215
38.2344
39.9344
42.3844
44.4908
47.2502
49.812
52.9576
56.0312
59.6427
63.2873
67.4393
71.7062
76.4536
81.3661
86.7177
92.2374
98.1149
104.09
110.263
116.356
122.376
128.01
133.178
137.543
140.978
143.159
143.973
144.218
143.015
141.073
138.287
135.508
132.727
130.279
128.436
127.296
126.5
126.368
126.778
128.081
129.81
132.829
138.24
151.17
159.363
29.2972
31.7812
32.6988
34.8414
36.2334
38.5379
40.3371
42.9028
45.1528
48.0665
50.8288
54.1875
57.5375
61.4474
65.472
70.0437
74.8337
80.1701
85.8024
91.9735
98.4763
105.474
112.766
120.429
128.231
136.141
143.86
151.24
157.901
163.6
167.938
170.162
171.03
170.772
167.73
164.477
159.305
154.803
149.543
145.61
141.824
139.575
138.58
138.238
139.558
142.158
146.68
154.355
171.274
183.658
29.3399
31.749
32.6358
34.6989
36.0283
38.2409
39.9411
42.3911
44.4977
47.2571
49.8191
52.9648
56.0386
59.6501
63.2945
67.4462
71.7121
76.4583
81.3686
86.7176
92.2338
98.1072
104.076
110.242
116.327
122.338
127.963
133.124
137.485
140.92
143.11
143.935
144.189
143.026
141.116
138.378
135.636
132.888
130.462
128.616
127.447
126.656
126.5
126.879
128.083
129.722
132.607
137.782
150.348
158.43
23.6139
25.1562
25.7101
26.971
27.7456
29.0572
29.9856
31.3785
32.4617
33.95
35.1901
36.7836
38.1797
39.883
41.4287
43.2378
44.9173
46.8167
48.602
50.5609
52.4078
54.3779
56.2256
58.1429
59.9183
61.7103
63.3398
64.9423
66.3733
67.7618
68.9895
70.192
71.2598
72.2675
73.2169
74.0496
74.8836
75.5035
76.0074
76.3353
76.401
76.2209
75.6065
74.7564
73.4401
71.7668
69.7434
68.1245
67.4173
66.828
36.191
37.2078
41.7611
55.6084
42.8262
37.3717
40.6785
54.7989
57.6915
37.8254
40.8961
55.5761
65.8762
54.2374
42.6959
57.1082
79.2159
142.974
45.3783
59.8583
87.6787
214.482
51.4311
62.992
93.6704
229.374
59.9227
66.2745
97.2367
228.143
73.1172
69.5673
98.477
229.857
87.2494
72.9035
99.1805
234.636
104.919
76.6181
98.3787
240.016
120.797
80.5118
96.2894
244.682
138.17
84.6939
92.2957
244.107
154.343
89.0777
87.9904
241.794
169.793
93.1188
82.8892
236.677
183.767
96.9411
77.8596
230.091
195.686
100.39
73.5051
222.45
203.927
103.372
69.6187
213.42
209.746
106.117
65.1745
204.351
211.514
108.176
60.727
195.286
210.606
109.904
56.5828
186.234
208.226
110.926
52.762
176.99
203.363
111.65
49.3042
167.707
197.014
111.663
46.1046
158.446
189.611
111.471
43.2005
149.441
181.673
110.799
40.5054
140.697
173.38
109.718
38.0719
132.413
165.104
108.268
35.8106
124.506
156.847
106.338
33.7814
117.148
148.906
104.238
31.8884
110.184
141.154
101.734
30.1994
103.787
133.866
99.196
28.6124
97.74
126.812
96.3237
27.2058
92.2455
120.294
93.5523
25.8688
87.0259
113.979
90.4905
24.6947
82.3381
108.24
87.6561
23.5589
77.8323
102.628
84.5406
22.5759
73.848
97.6292
81.7689
21.5993
69.9405
92.6438
78.6906
20.776
66.5665
88.3287
76.073
19.9252
63.1489
83.8819
73.0875
19.2383
60.3077
80.1928
70.686
18.4865
57.2822
76.1929
67.825
17.9179
54.9129
73.0802
65.679
17.2412
52.1909
69.438
62.9433
16.7774
50.2485
66.8602
61.073
16.1574
47.7539
63.4939
58.4491
15.7877
46.1996
61.4075
56.8729
15.2163
43.898
58.2832
54.3036
14.911
42.5806
56.483
53.1822
14.3145
40.1308
53.1362
49.9803
34.0382
32.7577
96.3694
189.523
76.3185
68.7108
74.1739
135.413
129.941
157.753
88.0595
118.908
197.353
448.026
118.84
106.969
264.124
824.006
202.599
106.26
305.479
985.56
284.744
108.002
351.484
1011.69
376.75
112.697
375.776
979.736
464.348
120.169
381.41
926.853
540.652
131.183
376.212
866.621
595.897
145.871
358.782
809.685
626.723
161.469
337.334
749.397
631.658
177.404
311.675
690.423
623.354
191.568
284.463
631.013
602.397
203.133
257.368
574.519
570.283
211.25
231.327
521.695
532.864
216.204
209.475
472.996
492.679
216.652
190.793
428.169
452.242
215.334
174.119
387.192
413.144
212.061
158.785
350.036
376.134
206.107
145.088
316.63
341.9
198.961
132.801
286.681
310.64
190.656
121.862
259.963
282.419
181.713
112.064
236.119
256.95
172.286
103.335
214.918
234.14
162.818
95.5026
196.008
213.633
153.313
88.5248
179.203
195.324
144.121
82.238
164.175
178.852
135.131
76.6309
150.805
164.149
126.64
71.5474
138.792
150.876
118.453
67.0071
128.088
139.017
110.846
62.8566
118.405
128.252
103.56
59.1471
109.77
118.631
96.8765
55.7198
101.888
109.834
90.4796
52.6589
94.8677
101.972
84.6863
49.7936
88.3837
94.7132
79.114
47.2556
82.6319
88.2484
74.1388
44.8297
77.2344
82.1987
69.2949
42.7116
72.4936
76.8588
65.0551
40.6238
67.9426
71.7596
60.8358
38.854
64.0237
67.3427
57.2536
37.0237
60.1286
62.9838
53.5561
35.5556
56.8972
59.3465
50.5656
33.9161
53.4982
55.5478
47.2854
32.7214
50.8688
52.5971
44.8363
31.2168
47.8182
49.1905
41.868
30.2757
45.7573
46.889
39.9391
28.8772
42.8743
43.6723
37.1389
28.1193
41.5183
42.164
35.874
26.6507
38.1356
38.3935
32.5583
34.3064
32.8135
99.3727
231.842
83.6172
71.7389
78.6409
156.991
142.95
170.399
95.912
133.558
226.531
475.538
133.96
120.012
306.661
869.199
233.239
121.955
354.628
1035.96
340.894
125.697
394.601
1075.86
450.543
135.955
425.059
1040.86
552.239
148.244
433.446
982.383
634.656
164.888
426.682
913.666
686.831
185.626
406.552
846.807
707.79
207.217
381.421
778.238
702.746
228.014
351.559
712.052
684.767
245.61
319.698
647.315
650.158
258.498
287.81
587.382
607.151
266.797
258.655
531.26
560.103
269.167
233.343
479.577
512.3
267.709
212.786
432.488
466.019
263.3
194.545
389.898
422.357
255.154
177.968
351.624
382
244.772
163.016
317.425
345.231
233.032
149.562
286.977
312.146
220.272
137.526
259.946
282.564
207.149
126.739
235.952
256.145
193.946
117.099
214.681
232.634
181.089
108.448
195.778
211.669
168.637
100.717
178.997
193.021
156.864
93.7458
164.029
176.36
145.688
87.5013
150.707
161.516
135.303
81.8332
138.76
148.202
125.546
76.7468
128.097
136.311
116.578
72.0911
118.468
125.589
108.187
67.9093
109.857
115.98
100.539
64.0407
102.013
107.256
93.3768
60.5626
94.9964
99.4373
86.9012
57.3077
88.536
92.2762
80.8056
54.4019
82.7729
85.8633
75.3479
51.6303
77.388
79.9227
70.1544
49.1915
72.6226
74.6325
65.5725
46.7972
68.0777
69.6472
61.1265
44.751
64.1247
65.2714
57.2997
42.6456
60.2329
61.0279
53.4591
40.9426
56.9608
57.4198
50.2928
39.0505
53.5642
53.7357
46.9252
37.6614
50.8909
50.804
44.3529
35.918
47.8406
47.5055
41.3284
34.8229
45.7414
45.2199
39.3211
33.1945
42.8499
42.0965
36.4753
32.3094
41.4629
40.6016
35.1649
30.5954
38.0695
36.946
31.8266
33.8676
32.6289
95.8963
188.534
76.315
68.494
73.8187
134.53
129.887
157.62
87.7084
118.12
197.337
448.447
118.422
106.271
264.151
824.532
202.257
105.71
305.526
986.108
284.42
107.483
351.508
1011.85
376.497
112.303
375.858
979.893
464.14
119.882
381.499
927.016
540.517
130.992
376.289
866.721
595.829
145.754
358.87
809.737
626.698
161.4
337.436
749.426
631.641
177.369
311.794
690.452
623.337
191.557
284.594
631.048
602.37
203.137
257.511
574.572
570.243
211.258
231.468
521.753
532.828
216.22
209.608
473.059
492.645
216.658
190.915
428.232
452.212
215.336
174.219
387.249
413.114
212.058
158.864
350.083
376.106
206.097
145.15
316.666
341.864
198.943
132.85
286.707
310.606
190.633
121.9
259.981
282.387
181.689
112.093
236.13
256.921
172.265
103.357
214.925
234.115
162.806
95.52
196.012
213.615
153.309
88.539
179.206
195.311
144.127
82.2504
164.178
178.846
135.146
76.6422
150.809
164.149
126.663
71.5584
138.797
150.881
118.482
67.0175
128.096
139.027
110.88
62.8665
118.414
128.265
103.595
59.1563
109.781
118.647
96.913
55.7283
101.9
109.852
90.5156
52.6662
94.8801
101.99
84.721
49.8003
88.3967
94.7318
79.1469
47.2609
82.6448
88.2664
74.1697
44.8347
77.2471
82.2168
69.3237
42.7152
72.5059
76.8758
65.0819
40.6275
67.9542
71.7765
60.8608
38.8568
64.035
67.3587
57.2768
37.027
60.1387
62.9996
53.5781
35.5588
56.9079
59.362
50.5869
33.92
53.5068
55.5625
47.3055
32.7266
50.8797
52.6128
44.8569
31.221
47.8265
49.2056
41.887
30.2891
45.7603
46.8962
39.9586
28.8597
42.9276
43.7365
37.1595
28.2324
41.3151
41.9473
35.8906
26.6099
38.2588
38.5535
32.5766
36.1847
37.1731
41.6147
54.9205
42.8284
37.3543
40.5784
54.2126
57.6911
37.8038
40.7993
54.9691
65.8695
54.2258
42.593
56.4846
79.1998
142.682
45.2718
59.3718
87.6604
214.277
51.3736
62.6494
93.6589
229.355
59.8484
66.0589
97.2446
228.156
73.0588
69.4312
98.4844
229.886
87.2064
72.815
99.1907
234.668
104.881
76.554
98.3927
240.033
120.773
80.4714
96.3092
244.703
138.16
84.6791
92.3223
244.173
154.357
89.104
88.0175
241.677
169.845
93.1809
82.9374
236.811
183.85
97.0489
77.9134
230.182
195.81
100.53
73.5634
222.539
204.066
103.545
69.6864
213.512
209.92
106.309
65.2262
204.45
211.665
108.374
60.7741
195.385
210.842
110.105
56.617
186.325
208.284
111.112
52.7947
177.073
203.498
111.836
49.3329
167.779
197.123
111.827
46.1305
158.507
189.701
111.556
43.2247
149.494
181.753
111.01
40.529
140.745
173.45
109.844
38.0953
132.457
165.167
108.389
35.8346
124.549
156.905
106.453
33.8057
117.19
148.96
104.346
31.9135
110.226
141.206
101.834
30.2246
103.829
133.915
99.2868
28.6377
97.7821
126.859
96.4056
27.2305
92.2866
120.337
93.624
25.8929
87.0661
114.02
90.5533
24.7176
82.3761
108.277
87.7095
23.5806
77.8686
102.662
84.587
22.5959
73.8812
97.6603
81.8083
21.6179
69.9717
92.6733
78.7254
20.7928
66.5945
88.3552
76.1037
19.9406
63.1752
83.9079
73.1159
19.2523
60.3313
80.2167
70.712
18.4993
57.3049
76.2174
67.8515
17.9298
54.934
73.1035
65.7048
17.2525
52.212
69.4631
62.9713
16.7884
50.2692
66.8845
61.1006
16.1683
47.7757
63.5214
58.4796
15.799
46.2215
61.4334
56.9028
15.2281
43.9232
58.3154
54.3358
14.9233
42.602
56.5073
53.2143
14.3289
40.1586
53.1684
50.0141
85.6238
87.5508
90.6652
94.9202
99.5713
103.797
107.376
110.294
112.562
114.136
115.055
115.342
115.165
114.663
113.709
112.448
111.019
109.389
107.705
105.855
104.026
102.047
100.139
98.0694
96.1093
93.9694
91.9669
89.7611
87.7273
85.4687
83.4261
81.1361
79.1147
76.8192
74.8517
72.5764
70.694
68.4605
66.6899
64.514
62.8762
60.7676
59.2787
57.2408
55.9124
53.9409
52.7879
50.843
50.002
47.53
274.424
267.802
253.808
243.511
236.918
231.936
227.439
223.572
219.902
216.632
213.698
211.22
209.441
207.865
206.77
205.677
204.637
203.549
202.113
200.279
198.087
195.229
191.881
187.828
183.356
178.264
172.931
167.122
161.289
155.123
149.144
142.931
137.09
131.057
125.553
119.84
114.797
109.47
104.952
100.026
96.0593
91.5126
88.098
83.8883
81.013
77.0839
74.74
70.9803