/*--------------------------------*- C++ -*----------------------------------*\
| =========                 |                                                 |
| \\      /  F ield         | OpenFOAM: The Open Source CFD Toolbox           |
|  \\    /   O peration     | Version:                                        |
|   \\  /    A nd           | Website:  www.openfoam.com                      |
|    \\/     M anipulation  |                                                 |
\*---------------------------------------------------------------------------*/
FoamFile
{
    version     2.0;
    format      ascii;
    class       volScalarField;
    location    "1.5";
    object      k;
}
// * * * * * * * * * * * * * * * * * * * * * * * * * * * * * * * * * * * * * //

dimensions      [0 2 -2 0 0 0 0];


internalField   nonuniform List<scalar> 
3850
(
0.196867
0.201438
0.206142
0.210817
0.215427
0.219912
0.224397
0.228752
0.233092
0.237286
0.241458
0.245473
0.249461
0.253283
0.257076
0.260695
0.264283
0.267694
0.271073
0.274272
0.277439
0.280424
0.283379
0.286154
0.288898
0.291466
0.294004
0.29637
0.298708
0.300879
0.303022
0.305007
0.306963
0.308772
0.310546
0.312191
0.31379
0.315282
0.316713
0.318064
0.31933
0.320549
0.321652
0.322741
0.323667
0.324608
0.32531
0.326066
0.326521
0.327254
0.211552
0.216445
0.221102
0.225504
0.229739
0.233775
0.237687
0.241437
0.245086
0.248588
0.252003
0.25528
0.258482
0.261553
0.264558
0.267439
0.270261
0.272963
0.275612
0.278144
0.280627
0.282997
0.285323
0.287539
0.289717
0.291785
0.293822
0.295749
0.297655
0.299445
0.301228
0.302884
0.304551
0.306079
0.307638
0.309043
0.310499
0.311787
0.313146
0.314322
0.315593
0.316653
0.317851
0.318781
0.319918
0.320687
0.321757
0.322174
0.323224
0.322054
0.206535
0.211642
0.216546
0.221203
0.225688
0.229965
0.234108
0.238067
0.241919
0.2456
0.249193
0.252624
0.255981
0.259182
0.262322
0.265308
0.268245
0.271031
0.273779
0.276376
0.278945
0.281365
0.283766
0.286017
0.288261
0.290352
0.29245
0.294389
0.296348
0.298143
0.299977
0.301635
0.303353
0.304879
0.306491
0.307891
0.309407
0.310687
0.312113
0.313278
0.314629
0.315675
0.316965
0.31789
0.319126
0.319938
0.321064
0.321752
0.32244
0.322082
0.211553
0.216444
0.221102
0.225503
0.22974
0.233773
0.237688
0.241435
0.245089
0.248585
0.252006
0.255276
0.258486
0.261548
0.264564
0.267432
0.270268
0.272955
0.275621
0.278134
0.280638
0.282984
0.285337
0.287524
0.289733
0.291768
0.293841
0.29573
0.297676
0.299423
0.301251
0.30286
0.304577
0.306052
0.307667
0.309013
0.310533
0.311752
0.313188
0.314283
0.315644
0.316618
0.317916
0.318771
0.320027
0.320777
0.322034
0.322647
0.324136
0.324005
0.196857
0.20145
0.206132
0.21083
0.215416
0.219926
0.224385
0.228766
0.23308
0.237302
0.241445
0.245489
0.249447
0.2533
0.25706
0.260713
0.264267
0.267713
0.271055
0.274291
0.27742
0.280445
0.283359
0.286176
0.288877
0.29149
0.293981
0.296396
0.298682
0.300907
0.302994
0.305038
0.306932
0.308805
0.310514
0.312226
0.313758
0.315321
0.316684
0.31811
0.319312
0.320619
0.321671
0.322884
0.323806
0.324966
0.325875
0.327076
0.32863
0.330464
0.211548
0.216453
0.221096
0.225513
0.229732
0.233785
0.237678
0.241448
0.245076
0.248601
0.251991
0.255294
0.258468
0.261569
0.264542
0.267456
0.270243
0.272983
0.275592
0.278166
0.280604
0.283022
0.285297
0.287568
0.289686
0.291818
0.293787
0.295788
0.297613
0.299491
0.301177
0.302939
0.304491
0.306145
0.307567
0.30912
0.310416
0.311877
0.313049
0.314426
0.315474
0.316773
0.317697
0.318915
0.31971
0.320821
0.321391
0.322996
0.322098
0.322781
0.227807
0.229702
0.228965
0.227317
0.225401
0.223406
0.221366
0.219307
0.217249
0.215204
0.213175
0.211172
0.209192
0.207245
0.205324
0.203444
0.201586
0.19978
0.197993
0.196273
0.19456
0.192927
0.191286
0.189744
0.188173
0.186723
0.185219
0.183865
0.182425
0.18117
0.179789
0.178635
0.177311
0.176258
0.17499
0.174036
0.172827
0.171968
0.170824
0.170057
0.168989
0.168323
0.167359
0.166831
0.16607
0.16579
0.165403
0.165469
0.16453
0.159623
0.222917
0.226514
0.226605
0.226223
0.22531
0.223911
0.222297
0.220535
0.218688
0.216775
0.214838
0.212865
0.210897
0.208903
0.206934
0.204938
0.202984
0.200999
0.199072
0.197104
0.195214
0.193271
0.191429
0.189516
0.187731
0.185853
0.184131
0.18229
0.180638
0.178837
0.177262
0.175501
0.174006
0.172285
0.170875
0.169193
0.167869
0.166229
0.164991
0.163392
0.162242
0.160686
0.159625
0.158106
0.157146
0.155659
0.154941
0.153303
0.154458
0.148647
0.227807
0.229702
0.228966
0.227318
0.225401
0.223407
0.221365
0.219308
0.217249
0.215205
0.213174
0.211173
0.209191
0.207246
0.205323
0.203445
0.201587
0.19978
0.197995
0.196271
0.194563
0.192923
0.191292
0.189738
0.188181
0.186714
0.18523
0.183853
0.182439
0.181154
0.179807
0.178615
0.177333
0.176233
0.175013
0.174007
0.172845
0.17193
0.170826
0.169993
0.168938
0.168172
0.167131
0.166415
0.165383
0.164653
0.163413
0.162838
0.15913
0.16827
0.211548
0.216453
0.221095
0.225513
0.229731
0.233785
0.237677
0.241449
0.245076
0.248601
0.251991
0.255294
0.258468
0.261568
0.264544
0.267455
0.270245
0.272981
0.275595
0.278163
0.280608
0.283018
0.285301
0.287564
0.289691
0.291814
0.293793
0.295783
0.29762
0.299486
0.301185
0.302932
0.3045
0.306137
0.307577
0.309111
0.310428
0.311868
0.313065
0.314421
0.315501
0.316787
0.317749
0.318955
0.319695
0.320719
0.320776
0.32018
0.318615
0.307543
0.20653
0.211655
0.216536
0.221215
0.225677
0.22998
0.234094
0.238084
0.241903
0.24562
0.249175
0.252646
0.25596
0.259207
0.262298
0.265336
0.268218
0.271063
0.273747
0.276412
0.27891
0.281404
0.283726
0.286062
0.288215
0.290403
0.292397
0.294447
0.296287
0.29821
0.299906
0.301712
0.30327
0.304969
0.306395
0.307996
0.309294
0.310808
0.311982
0.313417
0.314469
0.315833
0.316761
0.318057
0.318846
0.320079
0.320606
0.322273
0.3216
0.322422
0.222917
0.22651
0.226607
0.226226
0.225308
0.223912
0.222295
0.220537
0.218686
0.216778
0.214835
0.212869
0.210892
0.208909
0.206927
0.204946
0.202975
0.20101
0.199059
0.197118
0.195198
0.193289
0.191408
0.18954
0.187703
0.185883
0.184096
0.182328
0.180596
0.178885
0.17721
0.175559
0.173943
0.172354
0.170802
0.169275
0.167788
0.166323
0.16491
0.163509
0.162179
0.160856
0.159637
0.158438
0.157414
0.156463
0.155761
0.155321
0.153177
0.153454
0.21525
0.217662
0.219432
0.22081
0.221376
0.221244
0.220755
0.219835
0.218578
0.217093
0.215442
0.213653
0.211772
0.209801
0.207784
0.205701
0.203605
0.201456
0.199317
0.197129
0.194975
0.192768
0.19062
0.188408
0.186282
0.184077
0.181986
0.179794
0.177751
0.175578
0.173594
0.171442
0.169527
0.167396
0.16556
0.163446
0.161702
0.159599
0.157957
0.155859
0.15433
0.152235
0.150818
0.148738
0.147428
0.145371
0.144318
0.142008
0.142716
0.141046
0.222917
0.22651
0.226607
0.226226
0.225307
0.223912
0.222295
0.220538
0.218685
0.21678
0.214833
0.212871
0.210889
0.208913
0.206922
0.204952
0.202968
0.201018
0.199049
0.19713
0.195183
0.193307
0.191388
0.189563
0.187677
0.185913
0.184063
0.182366
0.180554
0.178932
0.177158
0.175615
0.173881
0.17242
0.170727
0.169349
0.167697
0.166401
0.164788
0.163575
0.161982
0.160844
0.159219
0.158114
0.156346
0.155221
0.153136
0.152547
0.146256
0.157643
0.20653
0.211653
0.216537
0.221213
0.225679
0.229977
0.234096
0.238081
0.241906
0.245616
0.249179
0.252641
0.255965
0.259201
0.262303
0.265329
0.268225
0.271055
0.273756
0.276402
0.278921
0.281393
0.283739
0.286048
0.28823
0.290386
0.292415
0.294427
0.296309
0.298186
0.299933
0.301684
0.303302
0.304935
0.306433
0.307956
0.30934
0.310762
0.312039
0.313368
0.314544
0.315793
0.316874
0.318066
0.319075
0.320044
0.320732
0.319651
0.314858
0.306816
0.21155
0.21645
0.221098
0.22551
0.229734
0.233782
0.23768
0.241445
0.245079
0.248597
0.251994
0.255291
0.258471
0.261566
0.264545
0.267453
0.270246
0.27298
0.275595
0.278163
0.280607
0.283018
0.2853
0.287564
0.28969
0.291814
0.293791
0.295784
0.297617
0.299487
0.301181
0.302936
0.304494
0.306143
0.307568
0.30912
0.310415
0.311878
0.313046
0.31443
0.315468
0.316783
0.317683
0.318932
0.319696
0.320788
0.321676
0.322677
0.32266
0.318981
0.227807
0.229701
0.228965
0.227317
0.225402
0.223406
0.221366
0.219306
0.21725
0.215203
0.213176
0.21117
0.209193
0.207243
0.205327
0.203441
0.20159
0.199776
0.197999
0.196266
0.194568
0.192918
0.191297
0.189731
0.188188
0.186705
0.18524
0.183842
0.182453
0.181139
0.179825
0.178596
0.177353
0.176212
0.175038
0.173986
0.172879
0.171916
0.170876
0.170006
0.169039
0.168277
0.167406
0.166799
0.166094
0.165774
0.165474
0.165256
0.164545
0.166058
0.222917
0.226514
0.226605
0.226223
0.22531
0.22391
0.222297
0.220534
0.218688
0.216774
0.214838
0.212864
0.210898
0.208902
0.206935
0.204937
0.202986
0.200997
0.199074
0.197101
0.195217
0.193268
0.191433
0.189512
0.187736
0.185847
0.184137
0.182283
0.180647
0.178828
0.177272
0.17549
0.174019
0.172271
0.170891
0.169176
0.167889
0.166208
0.165012
0.163373
0.162263
0.16067
0.159639
0.158095
0.157167
0.155616
0.155069
0.153078
0.154322
0.156542
0.227807
0.229702
0.228966
0.227318
0.225401
0.223407
0.221366
0.219307
0.217249
0.215204
0.213175
0.211172
0.209192
0.207245
0.205325
0.203443
0.201588
0.199778
0.197996
0.196269
0.194564
0.192922
0.191293
0.189736
0.188183
0.186711
0.185234
0.183849
0.182446
0.181147
0.179817
0.178603
0.177347
0.176216
0.175033
0.173985
0.172868
0.171909
0.170844
0.169982
0.168942
0.168179
0.167117
0.166444
0.165337
0.164738
0.163289
0.163104
0.158409
0.169223
0.211547
0.216454
0.221095
0.225513
0.229731
0.233785
0.237678
0.241448
0.245077
0.2486
0.251992
0.255293
0.25847
0.261566
0.264545
0.267453
0.270247
0.272979
0.275597
0.278162
0.280609
0.283017
0.285303
0.287562
0.289693
0.291813
0.293794
0.295782
0.297621
0.299484
0.301186
0.302931
0.304501
0.306136
0.307578
0.309111
0.310428
0.311869
0.313062
0.314426
0.315492
0.316802
0.317727
0.318979
0.319682
0.320656
0.32105
0.320212
0.318779
0.30622
0.196868
0.201436
0.206143
0.210816
0.215428
0.21991
0.224398
0.22875
0.233093
0.237285
0.241459
0.245472
0.249462
0.253282
0.257077
0.260694
0.264284
0.267693
0.271074
0.27427
0.27744
0.280423
0.28338
0.286152
0.2889
0.291464
0.294006
0.296368
0.298709
0.300877
0.303024
0.305006
0.306964
0.308771
0.310547
0.31219
0.313791
0.315282
0.316714
0.318064
0.319331
0.32055
0.321652
0.322741
0.323666
0.324605
0.325319
0.326031
0.326628
0.327318
0.211554
0.216442
0.221103
0.225501
0.229741
0.233772
0.237689
0.241435
0.245088
0.248586
0.252005
0.255277
0.258483
0.26155
0.26456
0.267436
0.270263
0.27296
0.275615
0.27814
0.280631
0.282992
0.285328
0.287533
0.289723
0.291778
0.29383
0.295741
0.297664
0.299436
0.301236
0.302876
0.304559
0.306072
0.307644
0.309038
0.310504
0.311784
0.313148
0.314324
0.315588
0.316664
0.317834
0.318804
0.31989
0.320713
0.321726
0.322201
0.323158
0.322062
0.206535
0.211641
0.216547
0.221202
0.225689
0.229964
0.234108
0.238066
0.241919
0.2456
0.249194
0.252624
0.255982
0.259182
0.262322
0.265308
0.268245
0.271032
0.273779
0.276376
0.278946
0.281364
0.283767
0.286016
0.288263
0.29035
0.292453
0.294385
0.296352
0.298139
0.299982
0.30163
0.303358
0.304874
0.306496
0.307888
0.30941
0.310686
0.312114
0.313282
0.31462
0.315689
0.316941
0.317923
0.31908
0.319994
0.320997
0.321812
0.322422
0.322856
0.211553
0.216443
0.221103
0.225502
0.229741
0.233773
0.237689
0.241434
0.245089
0.248584
0.252007
0.255275
0.258486
0.261547
0.264564
0.267432
0.270269
0.272955
0.275622
0.278133
0.280639
0.282983
0.285338
0.287523
0.289735
0.291766
0.293844
0.295727
0.29768
0.29942
0.301255
0.302856
0.304581
0.306048
0.307671
0.309009
0.310537
0.311749
0.313192
0.31428
0.315648
0.316615
0.317918
0.318769
0.320029
0.320775
0.322036
0.32265
0.32411
0.324042
0.196857
0.20145
0.206132
0.210831
0.215416
0.219926
0.224385
0.228766
0.23308
0.237302
0.241445
0.245489
0.249447
0.2533
0.25706
0.260713
0.264267
0.267713
0.271055
0.274292
0.27742
0.280446
0.283359
0.286177
0.288876
0.29149
0.293981
0.296396
0.298682
0.300907
0.302994
0.305038
0.306932
0.308806
0.310513
0.312229
0.313755
0.315325
0.316678
0.318117
0.319303
0.320632
0.321654
0.322904
0.323786
0.324978
0.325879
0.327093
0.328524
0.330492
0.327118
0.322288
0.325659
0.379556
0.322123
0.311933
0.321187
0.375727
0.320382
0.314337
0.322561
0.377594
0.324441
0.317252
0.343979
0.384183
0.333076
0.33305
0.352156
0.431147
0.301893
0.310196
0.863285
0.815184
0.189484
0.250525
0.994382
0.841514
0.1864
0.285464
1.02746
0.87176
0.175296
0.370114
1.35498
1.01425
0.27891
0.347572
1.32536
1.12539
0.294519
0.30653
1.01314
0.93603
0.171258
0.260224
1.17092
0.959617
0.181892
0.32091
1.25654
1.01391
0.170565
0.417541
1.65536
1.1973
0.276024
0.366184
1.62066
1.32629
0.302103
0.317024
0.870946
0.818672
0.167118
0.277321
0.977595
0.83396
0.173558
0.289156
1.00659
0.862804
0.1787
0.370586
1.34922
1.00963
0.275816
0.346002
1.32184
1.1227
0.327629
0.321837
0.325777
0.380692
0.321991
0.312768
0.321529
0.376975
0.319624
0.314068
0.322433
0.376955
0.324351
0.317463
0.34351
0.383965
0.33308
0.332817
0.351922
0.43048
0.0910652
0.193737
0.242727
0.24595
0.0937347
0.202278
0.254008
0.256817
0.0949241
0.206585
0.259936
0.262593
0.0973864
0.21449
0.270218
0.272379
0.0989256
0.219673
0.27709
0.278793
0.101517
0.227968
0.287951
0.289044
0.103434
0.234382
0.29636
0.296642
0.1062
0.24318
0.307944
0.307363
0.108518
0.25085
0.317962
0.316162
0.111526
0.260415
0.330493
0.327483
0.114271
0.269412
0.342175
0.337464
0.117599
0.279985
0.355921
0.349484
0.120811
0.290415
0.369372
0.360602
0.124548
0.302245
0.384598
0.373368
0.128287
0.314263
0.39995
0.385538
0.132534
0.327606
0.41691
0.399025
0.136884
0.341408
0.434315
0.412095
0.141759
0.356534
0.453233
0.426169
0.146834
0.372352
0.472827
0.439875
0.152478
0.389539
0.493875
0.45425
0.158424
0.407623
0.515743
0.468164
0.16501
0.427141
0.538982
0.482281
0.172017
0.447729
0.563075
0.495582
0.179759
0.469806
0.588382
0.508509
0.188059
0.493064
0.614417
0.520104
0.197191
0.517796
0.641351
0.530597
0.206972
0.543682
0.668647
0.539076
0.217639
0.570843
0.696248
0.54552
0.229116
0.598892
0.723463
0.548861
0.241779
0.627742
0.749951
0.550059
0.256005
0.656726
0.774552
0.549397
0.272668
0.685281
0.796206
0.544243
0.292171
0.712369
0.812776
0.538035
0.313491
0.736897
0.821596
0.529347
0.335791
0.758632
0.824496
0.5188
0.357203
0.775622
0.820192
0.504696
0.379536
0.786884
0.801327
0.490229
0.398235
0.793677
0.770841
0.47393
0.411211
0.795698
0.726214
0.457601
0.420025
0.791221
0.675129
0.440829
0.422638
0.775824
0.61272
0.423875
0.420574
0.755477
0.544914
0.40956
0.415188
0.727234
0.479905
0.397005
0.403791
0.70125
0.413829
0.386937
0.386351
0.694413
0.361975
0.37811
0.363135
0.692508
0.327974
0.370071
0.339523
0.600308
0.309803
0.363544
0.316915
0.329516
0.295507
0.361129
0.265028
0.2578
0.290753
0.363636
0.27075
0.29649
0.318796
0.37382
0.153357
0.340207
0.356985
0.291612
0.159658
0.359935
0.380112
0.312344
0.162429
0.369831
0.392037
0.323166
0.168134
0.387321
0.41269
0.342045
0.171869
0.400189
0.427954
0.355518
0.177763
0.418341
0.449501
0.375484
0.182458
0.434199
0.468391
0.392251
0.188725
0.453836
0.491758
0.413943
0.194372
0.472649
0.514269
0.434112
0.201212
0.494494
0.54034
0.458262
0.207842
0.516482
0.566735
0.482087
0.215461
0.541197
0.59634
0.509414
0.223164
0.566772
0.627135
0.537306
0.231771
0.595047
0.661145
0.568536
0.240692
0.624814
0.697074
0.601032
0.250522
0.657447
0.736462
0.636912
0.260867
0.692196
0.778469
0.674651
0.27219
0.730146
0.824366
0.71593
0.284234
0.770885
0.873616
0.759554
0.297384
0.815329
0.927353
0.80689
0.311485
0.863334
0.985271
0.856907
0.326883
0.91573
1.04841
0.910763
0.343513
0.9726
1.11666
0.967487
0.361709
1.03476
1.19099
1.02785
0.381497
1.10249
1.27143
1.09071
0.403199
1.17664
1.35894
1.15636
0.426914
1.25767
1.4536
1.22325
0.45298
1.34645
1.55639
1.29087
0.481581
1.4436
1.66754
1.35687
0.51317
1.55008
1.78811
1.41958
0.548351
1.66649
1.91819
1.4757
0.587812
1.79301
2.05815
1.52273
0.634719
1.92933
2.20695
1.5527
0.687311
2.07433
2.36393
1.56831
0.743211
2.22524
2.52573
1.57133
0.800279
2.37706
2.6866
1.54683
0.856746
2.52443
2.83804
1.50275
0.909324
2.65847
2.96686
1.43867
0.954455
2.76623
3.03841
1.35496
0.992027
2.85131
3.06489
1.25963
1.01236
2.89579
3.03267
1.13815
1.01047
2.9082
2.87858
1.01209
0.99402
2.90956
2.62862
0.887255
0.940447
2.87918
2.24148
0.779888
0.875945
2.76509
1.76787
0.697924
0.809502
2.59959
1.31163
0.641555
0.75246
2.32901
0.897382
0.617213
0.632515
1.40559
0.618814
0.61657
0.465291
0.547578
0.506072
0.67894
0.306549
0.317551
0.504697
0.768682
0.169169
0.36512
0.37782
0.302949
0.176305
0.386559
0.402338
0.32464
0.179422
0.39732
0.414953
0.335986
0.185821
0.416119
0.436608
0.355636
0.190049
0.430268
0.453029
0.369989
0.196632
0.449727
0.475539
0.39073
0.201938
0.467086
0.495799
0.408649
0.208921
0.488173
0.520263
0.431263
0.215283
0.508669
0.544309
0.452843
0.222895
0.532161
0.571688
0.478176
0.230336
0.556032
0.599804
0.503714
0.238802
0.582628
0.630977
0.532593
0.247415
0.610326
0.663728
0.562595
0.256968
0.640757
0.699611
0.59588
0.266911
0.672931
0.737788
0.631035
0.277803
0.708048
0.779414
0.669654
0.2893
0.745551
0.824051
0.710811
0.301825
0.786379
0.872652
0.755768
0.315172
0.8303
0.925057
0.803895
0.329685
0.878099
0.982107
0.856235
0.345267
0.929803
1.04384
0.912328
0.362223
0.986143
1.11108
0.973042
0.380543
1.04736
1.18404
1.03794
0.400518
1.11418
1.26356
1.10767
0.422207
1.18706
1.34996
1.18169
0.445847
1.26677
1.44414
1.26026
0.471641
1.35393
1.54652
1.34246
0.499904
1.44941
1.65801
1.42791
0.530866
1.55397
1.7791
1.51491
0.564914
1.6685
1.9106
1.60194
0.60245
1.79368
2.05285
1.68596
0.644709
1.92999
2.20625
1.76365
0.695915
2.07717
2.36968
1.8303
0.753036
2.23393
2.5417
1.88061
0.81372
2.39769
2.71902
1.90282
0.876024
2.56348
2.89705
1.90928
0.936856
2.72446
3.06715
1.87388
0.993752
2.8733
3.21832
1.8067
1.04295
2.9971
3.31916
1.70264
1.08375
3.09463
3.36211
1.57287
1.10648
3.15482
3.36323
1.4188
1.10453
3.17083
3.20835
1.24552
1.08631
3.17184
2.95535
1.07807
1.03308
3.10848
2.54494
0.926045
0.97479
2.96593
2.03873
0.801806
0.904803
2.7727
1.50884
0.722486
0.837899
2.47532
1.01424
0.682118
0.695065
1.48902
0.698995
0.678685
0.503111
0.578343
0.566422
0.74882
0.321115
0.327933
0.561174
0.856136
0.153446
0.340288
0.357117
0.291669
0.159752
0.360024
0.380253
0.312397
0.162526
0.369925
0.392182
0.323222
0.168236
0.387422
0.412841
0.342093
0.171975
0.400297
0.428113
0.355568
0.177874
0.418459
0.449669
0.375529
0.182575
0.434327
0.468569
0.392297
0.188849
0.453977
0.491949
0.413986
0.194503
0.472804
0.514474
0.434157
0.201352
0.494666
0.540562
0.458307
0.20799
0.51667
0.566973
0.482134
0.215619
0.541404
0.596597
0.509462
0.223332
0.567
0.627412
0.537355
0.23195
0.595297
0.661444
0.568583
0.240882
0.625085
0.697392
0.601075
0.250724
0.657741
0.736802
0.636952
0.261081
0.692514
0.778827
0.674679
0.272417
0.730488
0.824743
0.715941
0.284474
0.77125
0.874009
0.759535
0.297639
0.815718
0.92776
0.806834
0.311756
0.863747
0.985691
0.8568
0.327171
0.916168
1.04885
0.910633
0.343818
0.973064
1.1171
0.967293
0.362035
1.03525
1.19146
1.02759
0.381846
1.10302
1.27191
1.09036
0.403568
1.17721
1.35944
1.15589
0.427308
1.25829
1.45414
1.22263
0.453403
1.34713
1.55699
1.29009
0.48204
1.44434
1.66819
1.35589
0.513668
1.55089
1.78884
1.41838
0.548879
1.66738
1.91903
1.47427
0.588358
1.79405
2.05913
1.52109
0.635304
1.93053
2.20812
1.55096
0.68797
2.07572
2.36525
1.56655
0.743969
2.22687
2.52729
1.56962
0.801187
2.37902
2.68837
1.54553
0.85783
2.52671
2.84002
1.50204
0.910524
2.66106
2.96902
1.43872
0.955839
2.76918
3.04059
1.35592
0.993567
2.85468
3.06705
1.26135
1.01421
2.89983
3.03485
1.14053
1.01234
2.91284
2.88072
1.01469
0.995839
2.91431
2.63121
0.889901
0.942153
2.88341
2.24527
0.782232
0.877437
2.76772
1.77292
0.700354
0.810616
2.60083
1.31692
0.643653
0.753217
2.32929
0.902378
0.61932
0.632873
1.40795
0.619668
0.618439
0.466095
0.551099
0.508783
0.680816
0.307187
0.317395
0.506737
0.770099
0.0913139
0.194051
0.242957
0.246047
0.0939931
0.202601
0.254243
0.256913
0.0951868
0.206914
0.260173
0.262684
0.0976579
0.214826
0.270455
0.272459
0.099202
0.220016
0.277335
0.278874
0.101802
0.228318
0.288199
0.289113
0.103725
0.234736
0.296616
0.296709
0.1065
0.24354
0.308208
0.30742
0.108825
0.251219
0.318228
0.316218
0.111843
0.260793
0.330765
0.327532
0.114596
0.269798
0.342449
0.337511
0.117933
0.28038
0.3562
0.349525
0.121153
0.290816
0.369651
0.360639
0.124898
0.302651
0.38488
0.3734
0.128644
0.314671
0.40023
0.385566
0.132898
0.328017
0.417189
0.399048
0.137254
0.341818
0.434588
0.412111
0.142134
0.356941
0.453501
0.426178
0.147213
0.372753
0.473086
0.439872
0.152859
0.389933
0.494124
0.454235
0.158806
0.408006
0.515979
0.468132
0.165391
0.427513
0.539206
0.482196
0.172395
0.448089
0.563287
0.495464
0.180132
0.470154
0.588585
0.508341
0.188424
0.4934
0.614615
0.519903
0.197544
0.518123
0.641548
0.530358
0.207307
0.544001
0.668852
0.53881
0.217956
0.571158
0.696471
0.545373
0.229413
0.599207
0.723704
0.54857
0.242051
0.628066
0.750228
0.549849
0.256252
0.657069
0.774864
0.549259
0.27286
0.685655
0.796528
0.544193
0.292366
0.712801
0.813569
0.5381
0.313659
0.737353
0.82183
0.529569
0.335982
0.759177
0.825084
0.519086
0.357407
0.776271
0.820976
0.505143
0.379745
0.7876
0.802197
0.490757
0.398486
0.794486
0.771856
0.474558
0.411484
0.796567
0.727286
0.458268
0.420322
0.792272
0.676253
0.441493
0.422998
0.777066
0.613839
0.424469
0.420948
0.756917
0.546002
0.409979
0.41559
0.72894
0.480891
0.397202
0.404218
0.702546
0.414675
0.386843
0.386623
0.694906
0.362592
0.377726
0.363456
0.69153
0.328231
0.36953
0.339755
0.598729
0.30979
0.363055
0.317244
0.329378
0.295456
0.360671
0.265265
0.257874
0.290409
0.36301
0.271088
0.296387
0.319056
0.374942
0.198759
0.206171
0.210084
0.216678
0.220874
0.227762
0.2326
0.239746
0.245236
0.252676
0.258794
0.26655
0.273254
0.281323
0.288548
0.296891
0.304536
0.313067
0.320983
0.329558
0.337543
0.345956
0.353752
0.361745
0.369061
0.376362
0.382924
0.389308
0.394947
0.400364
0.40511
0.409725
0.413804
0.417645
0.421278
0.424466
0.427676
0.430043
0.432236
0.43317
0.433625
0.433046
0.430922
0.428017
0.423537
0.417664
0.410317
0.403928
0.400812
0.39865
0.229839
0.240673
0.24641
0.256363
0.262962
0.273591
0.281656
0.293054
0.302688
0.315075
0.326365
0.339963
0.352995
0.368005
0.38285
0.399418
0.416095
0.434266
0.452676
0.472316
0.492153
0.512845
0.533459
0.554345
0.57458
0.594225
0.612318
0.628689
0.64238
0.653186
0.659079
0.662517
0.662905
0.659201
0.65328
0.64463
0.636002
0.627292
0.619591
0.613806
0.609535
0.607911
0.607042
0.608312
0.612355
0.617732
0.627092
0.64406
0.683996
0.709863
0.229651
0.240839
0.24677
0.257092
0.263991
0.275036
0.283546
0.295438
0.305683
0.318694
0.330792
0.345208
0.359294
0.375393
0.391612
0.409637
0.428108
0.448227
0.468984
0.49121
0.5141
0.538176
0.562703
0.587913
0.613033
0.637986
0.661872
0.684307
0.704242
0.721071
0.733718
0.740273
0.742723
0.741987
0.733214
0.723653
0.708451
0.695056
0.679216
0.667215
0.655476
0.648899
0.645105
0.64435
0.648417
0.656548
0.670151
0.693426
0.74298
0.777678
0.229871
0.240707
0.246442
0.256393
0.262993
0.27362
0.281687
0.293083
0.302719
0.315106
0.326396
0.339995
0.353026
0.368036
0.382879
0.399445
0.416116
0.434281
0.452682
0.472311
0.492135
0.512813
0.533406
0.554271
0.57448
0.594102
0.612171
0.628525
0.642207
0.653016
0.658954
0.662429
0.662844
0.659269
0.653438
0.64494
0.636411
0.627791
0.620118
0.614289
0.609905
0.608189
0.607312
0.608462
0.612243
0.617442
0.626611
0.643337
0.683272
0.710075
0.198844
0.206266
0.210169
0.21676
0.220958
0.22784
0.232681
0.239825
0.245317
0.252756
0.258876
0.266633
0.273339
0.281409
0.288635
0.296979
0.304623
0.313153
0.321066
0.329639
0.33762
0.346032
0.353828
0.361828
0.369156
0.376477
0.383071
0.389498
0.395189
0.40067
0.405485
0.41017
0.414311
0.418206
0.421862
0.425059
0.428241
0.430563
0.43267
0.433481
0.433926
0.433204
0.430779
0.427488
0.422441
0.416035
0.408217
0.402084
0.399106
0.397559
0.319223
0.326178
0.349735
0.426059
0.356978
0.326664
0.345927
0.421423
0.435721
0.329373
0.348238
0.424843
0.476452
0.418244
0.355442
0.433504
0.53874
0.80056
0.372724
0.447315
0.576469
1.04712
0.403638
0.462728
0.603272
1.09367
0.447174
0.478566
0.616371
1.09005
0.510738
0.494188
0.623249
1.09569
0.574687
0.509821
0.625804
1.11104
0.649967
0.527035
0.622417
1.12813
0.714089
0.544812
0.613554
1.14274
0.781086
0.563615
0.596464
1.14109
0.840956
0.582944
0.577718
1.13328
0.896181
0.600472
0.555198
1.11793
0.944653
0.61679
0.532477
1.0969
0.98498
0.631297
0.512417
1.07241
1.01236
0.6437
0.494214
1.04315
1.03142
0.654968
0.472926
1.01338
1.03712
0.663359
0.451189
0.983179
1.03441
0.670323
0.430422
0.952544
1.02599
0.674435
0.410867
0.92075
1.01017
0.677279
0.39274
0.888262
0.988961
0.677285
0.375577
0.855243
0.963977
0.676228
0.359646
0.822517
0.936858
0.674014
0.34453
0.790101
0.908093
0.669274
0.330584
0.758759
0.878933
0.663342
0.317351
0.728227
0.849354
0.655411
0.305233
0.699224
0.820413
0.646734
0.293705
0.67121
0.791667
0.636321
0.283223
0.644949
0.764159
0.625685
0.273196
0.619628
0.737059
0.613543
0.264152
0.596165
0.711569
0.601718
0.255411
0.573442
0.686436
0.588521
0.247612
0.552648
0.663192
0.576174
0.239951
0.532289
0.640062
0.562449
0.233223
0.51396
0.61911
0.550098
0.226444
0.495665
0.597856
0.536217
0.220652
0.479597
0.579153
0.524272
0.214587
0.463043
0.559557
0.510478
0.20963
0.449057
0.54304
0.499244
0.204136
0.433918
0.524839
0.485696
0.199936
0.421883
0.510458
0.475396
0.194874
0.407828
0.49336
0.462126
0.191376
0.39767
0.481093
0.452901
0.186627
0.384373
0.464779
0.439898
0.183808
0.376102
0.454668
0.4318
0.179239
0.363117
0.438643
0.419204
0.17728
0.3574
0.431548
0.411453
0.171999
0.341665
0.411801
0.397257
0.321617
0.327856
1.03896
1.114
0.547665
0.533241
0.700479
1.07234
0.780348
1.00992
0.764177
1.01146
1.03065
2.3801
0.93434
0.94124
1.25161
3.82212
1.339
0.935546
1.37941
4.5285
1.77304
0.94785
1.51511
4.78754
2.23646
0.977461
1.58347
4.74752
2.69589
1.03349
1.59938
4.65415
3.08815
1.10631
1.58487
4.51446
3.40553
1.20252
1.53555
4.36058
3.58575
1.29705
1.47372
4.18912
3.7152
1.39444
1.39799
3.99524
3.71318
1.48076
1.31536
3.78641
3.67992
1.54965
1.23041
3.57987
3.60041
1.60776
1.14596
3.37598
3.47255
1.64528
1.07262
3.17514
3.31696
1.67233
1.00787
2.97912
3.14686
1.68499
0.948251
2.79029
2.97139
1.68152
0.891788
2.61107
2.79718
1.67106
0.839769
2.44314
2.62921
1.64755
0.791686
2.28659
2.46919
1.61398
0.747599
2.14166
2.31878
1.57323
0.706964
2.00775
2.17789
1.52621
0.669743
1.88462
2.04715
1.47553
0.635433
1.77127
1.92559
1.42154
0.604062
1.66738
1.81345
1.36657
0.57508
1.57171
1.70938
1.31041
0.5486
1.48411
1.61358
1.25513
0.52403
1.40322
1.52454
1.19999
0.501591
1.32915
1.44263
1.14693
0.480634
1.26041
1.36624
1.0947
0.461514
1.19748
1.29599
1.04525
0.443495
1.13866
1.23012
0.996847
0.427094
1.0849
1.16963
0.951682
0.411454
1.03416
1.11248
0.907408
0.397354
0.987983
1.0602
0.866718
0.383642
0.943802
1.01025
0.82648
0.37147
0.903961
0.964945
0.79023
0.359276
0.865089
0.920895
0.753694
0.348776
0.830674
0.881662
0.721745
0.337749
0.796044
0.842364
0.688383
0.328774
0.766433
0.80859
0.660603
0.318601
0.735045
0.772917
0.62981
0.311089
0.709941
0.744321
0.606173
0.301476
0.680729
0.711064
0.577221
0.295447
0.660199
0.68772
0.557771
0.286066
0.632003
0.655651
0.530053
0.28192
0.615781
0.636953
0.513751
0.270987
0.583968
0.601033
0.483057
0.324906
0.340121
1.2784
1.30531
0.584383
0.565355
0.828392
1.25142
0.831889
1.10195
0.905008
1.16559
1.13025
2.57545
1.11251
1.08245
1.38297
4.11491
1.61064
1.08709
1.52367
4.87631
2.15244
1.10977
1.63614
5.21542
2.71354
1.17162
1.71926
5.19283
3.23099
1.25778
1.74181
5.10465
3.66098
1.36741
1.72369
4.94044
3.96706
1.49954
1.66904
4.75876
4.14865
1.62946
1.5995
4.55456
4.22453
1.7583
1.51485
4.33141
4.20149
1.86322
1.42185
4.10129
4.13265
1.95195
1.32566
3.87295
3.99373
2.01715
1.23455
3.64488
3.81985
2.06131
1.15265
3.4216
3.62676
2.08032
1.08392
3.20595
3.42544
2.07479
1.02108
3.00036
3.22435
2.05563
0.962248
2.80649
3.02856
2.01886
0.907597
2.62549
2.84168
1.96759
0.856962
2.45745
2.66515
1.90651
0.81035
2.30222
2.50003
1.83908
0.767389
2.15913
2.34618
1.76708
0.727944
2.02765
2.20369
1.69322
0.691608
1.90676
2.07172
1.61832
0.658304
1.79587
1.95002
1.54439
0.627528
1.69384
1.83744
1.47146
0.599308
1.60023
1.73372
1.4011
0.573108
1.51385
1.63765
1.33275
0.549079
1.43454
1.54914
1.2678
0.526619
1.36098
1.46687
1.20521
0.506035
1.29342
1.39103
1.14638
0.486618
1.23034
1.32022
1.08985
0.46883
1.17244
1.25494
1.03722
0.451877
1.11792
1.19359
0.986532
0.436473
1.06803
1.13715
0.939844
0.421527
1.02046
1.08361
0.894512
0.408156
0.977276
1.03466
0.853372
0.394814
0.935373
0.987556
0.812742
0.383233
0.897935
0.94509
0.776768
0.37113
0.860587
0.90317
0.740104
0.361197
0.828249
0.866513
0.709007
0.349991
0.794405
0.828569
0.675478
0.341659
0.766869
0.797428
0.649131
0.331024
0.73537
0.76211
0.617789
0.324333
0.712772
0.736655
0.596235
0.313898
0.682239
0.702441
0.566234
0.309315
0.664596
0.682486
0.548494
0.297066
0.6298
0.643718
0.515203
0.320254
0.326514
1.03067
1.11104
0.547729
0.531894
0.696423
1.06723
0.780186
1.00856
0.759793
1.00536
1.0308
2.38079
0.9285
0.935693
1.2519
3.82325
1.33405
0.930855
1.37965
4.5298
1.76918
0.943511
1.51508
4.78777
2.23378
0.974037
1.58365
4.74783
2.69403
1.03103
1.59961
4.65474
3.08702
1.10472
1.58507
4.51486
3.40496
1.20156
1.53576
4.36083
3.58553
1.29662
1.47395
4.1893
3.71512
1.39434
1.39826
3.99541
3.71312
1.48093
1.31569
3.78671
3.67986
1.5499
1.2308
3.5801
3.60029
1.6081
1.14637
3.37627
3.47245
1.64553
1.07304
3.17547
3.31688
1.67258
1.00828
2.97946
3.1468
1.68506
0.948622
2.79059
2.97133
1.68154
0.89209
2.61129
2.79708
1.67098
0.840019
2.44328
2.62911
1.64738
0.791891
2.28666
2.46905
1.61377
0.747762
2.14168
2.31863
1.57303
0.707094
2.00773
2.17775
1.52606
0.669846
1.8846
2.04704
1.47544
0.635514
1.77125
1.92554
1.42153
0.604128
1.66738
1.81345
1.36665
0.575137
1.57174
1.70945
1.31057
0.548653
1.48417
1.6137
1.25536
0.524082
1.40332
1.52472
1.20028
0.501641
1.32927
1.44284
1.14726
0.480684
1.26055
1.36648
1.09504
0.461562
1.19763
1.29624
1.04561
0.443542
1.13882
1.23038
0.997196
0.427136
1.08505
1.16988
0.95202
0.411495
1.0343
1.11272
0.90773