/*--------------------------------*- C++ -*----------------------------------*\
| =========                 |                                                 |
| \\      /  F ield         | OpenFOAM: The Open Source CFD Toolbox           |
|  \\    /   O peration     | Version:                                        |
|   \\  /    A nd           | Website:  www.openfoam.com                      |
|    \\/     M anipulation  |                                                 |
\*---------------------------------------------------------------------------*/
FoamFile
{
    version     2.0;
    format      ascii;
    class       volScalarField;
    location    "1.5";
    object      nut;
}
// * * * * * * * * * * * * * * * * * * * * * * * * * * * * * * * * * * * * * //

dimensions      [0 2 -1 0 0 0 0];


internalField   nonuniform List<scalar> 
3850
(
0.00019927
0.000201579
0.000203921
0.000206221
0.000208464
0.000210622
0.000212759
0.000214814
0.000216842
0.000218784
0.000220699
0.000222527
0.000224327
0.000226039
0.000227725
0.000229323
0.000230895
0.000232381
0.000233843
0.000235219
0.000236572
0.000237842
0.000239092
0.00024026
0.000241409
0.000242479
0.000243533
0.000244511
0.000245474
0.000246364
0.00024724
0.000248048
0.000248843
0.000249574
0.000250291
0.000250952
0.000251595
0.000252192
0.000252764
0.000253302
0.000253807
0.000254288
0.00025473
0.000255154
0.000255531
0.000255886
0.000256189
0.000256425
0.000256809
0.000256734
0.000206569
0.000208953
0.000211191
0.000213283
0.000215277
0.00021716
0.000218969
0.00022069
0.000222351
0.000223934
0.000225467
0.000226928
0.000228347
0.000229699
0.000231015
0.00023227
0.000233492
0.000234657
0.000235792
0.000236873
0.000237928
0.000238931
0.00023991
0.000240841
0.000241751
0.000242612
0.000243458
0.000244255
0.000245042
0.000245776
0.000246508
0.000247183
0.000247864
0.000248483
0.000249117
0.000249684
0.000250272
0.000250791
0.000251337
0.000251806
0.00025232
0.000252733
0.000253227
0.000253574
0.000254064
0.000254297
0.000254879
0.000254677
0.000255885
0.000253589
0.000204103
0.00020662
0.000209006
0.000211241
0.000213371
0.000215383
0.000217314
0.000219144
0.00022091
0.000222584
0.000224206
0.000225745
0.00022724
0.000228656
0.000230037
0.000231343
0.00023262
0.000233825
0.000235007
0.00023612
0.000237214
0.000238241
0.000239255
0.000240202
0.000241143
0.000242016
0.000242889
0.000243692
0.000244503
0.000245241
0.000245995
0.000246673
0.000247376
0.000247996
0.000248652
0.000249218
0.000249831
0.000250348
0.000250922
0.000251388
0.000251932
0.000252347
0.000252866
0.000253235
0.000253714
0.000254076
0.000254437
0.000254894
0.000254746
0.000254945
0.000206569
0.000208952
0.000211191
0.000213283
0.000215278
0.000217159
0.00021897
0.000220689
0.000222352
0.000223933
0.000225468
0.000226926
0.000228349
0.000229697
0.000231018
0.000232267
0.000233495
0.000234653
0.000235796
0.000236869
0.000237933
0.000238926
0.000239916
0.000240834
0.000241758
0.000242605
0.000243466
0.000244247
0.00024505
0.000245767
0.000246517
0.000247174
0.000247874
0.000248473
0.000249128
0.000249672
0.000250286
0.000250776
0.000251353
0.000251792
0.000252337
0.000252726
0.000253243
0.000253586
0.000254079
0.000254384
0.000254904
0.000254967
0.000255898
0.000255522
0.000199266
0.000201585
0.000203916
0.000206227
0.000208458
0.000210629
0.000212754
0.000214821
0.000216837
0.000218791
0.000220693
0.000222534
0.000224321
0.000226047
0.000227718
0.00022933
0.000230888
0.000232389
0.000233835
0.000235227
0.000236565
0.000237851
0.000239083
0.000240269
0.0002414
0.00024249
0.000243523
0.000244522
0.000245463
0.000246376
0.000247229
0.000248061
0.00024883
0.000249588
0.000250278
0.000250966
0.000251582
0.000252206
0.000252753
0.000253319
0.0002538
0.000254316
0.000254737
0.000255207
0.000255599
0.000255985
0.000256524
0.000256599
0.00025809
0.000258202
0.00020657
0.000208958
0.000211188
0.000213287
0.000215274
0.000217164
0.000218965
0.000220695
0.000222347
0.00022394
0.000225461
0.000226935
0.000228341
0.000229706
0.000231009
0.000232277
0.000233485
0.000234665
0.000235784
0.000236882
0.000237918
0.000238941
0.0002399
0.000240853
0.000241738
0.000242626
0.000243443
0.000244271
0.000245024
0.000245795
0.000246486
0.000247206
0.000247839
0.000248511
0.000249087
0.000249716
0.000250238
0.000250827
0.000251297
0.00025185
0.000252267
0.00025279
0.000253154
0.000253642
0.000253955
0.000254445
0.000254288
0.000255639
0.000254067
0.000259495
0.00201914
0.00151852
0.00126685
0.00110453
0.000988397
0.000900388
0.000830828
0.000773976
0.000726504
0.00068595
0.000650955
0.000620176
0.000593055
0.000568694
0.000546933
0.000527059
0.00050915
0.000492565
0.000477494
0.000463325
0.000450411
0.000438159
0.000426976
0.000416287
0.000406518
0.000397129
0.000388527
0.000380235
0.000372601
0.000365267
0.000358441
0.000351954
0.000345793
0.000340065
0.000334449
0.00032941
0.000324247
0.000319809
0.000315051
0.000311126
0.000306735
0.00030321
0.000299095
0.00029577
0.000291999
0.000288259
0.000285014
0.000280383
0.000276788
0.000253088
0.00222583
0.00182075
0.00156027
0.00138652
0.00125014
0.0011399
0.00104993
0.0009754
0.000912224
0.000857974
0.000810569
0.000769097
0.000732168
0.000699342
0.000669691
0.000642989
0.000618615
0.000596415
0.000576018
0.000557256
0.000539927
0.000523812
0.000508896
0.00049486
0.000481888
0.000469518
0.000458149
0.000447125
0.000437102
0.000427172
0.000418305
0.000409272
0.000401423
0.000393128
0.000386194
0.000378496
0.000372409
0.000365196
0.000359877
0.000353123
0.000348398
0.000342076
0.000337828
0.000331936
0.000328112
0.000322592
0.000319215
0.00031426
0.000309508
0.000281842
0.00201915
0.00151852
0.00126685
0.00110454
0.000988381
0.000900412
0.000830805
0.000774005
0.000726474
0.000685986
0.000650916
0.000620221
0.000593008
0.000568749
0.000546875
0.000527126
0.000509079
0.000492645
0.000477414
0.000463413
0.000450321
0.000438256
0.000426878
0.000416392
0.000406413
0.00039724
0.000388419
0.000380345
0.000372495
0.000365373
0.000358343
0.000352048
0.000345713
0.000340141
0.0003344
0.000329467
0.000324239
0.000319878
0.000315105
0.000311259
0.000306907
0.000303556
0.000299604
0.000296747
0.000293069
0.000290914
0.000287084
0.000286366
0.000277429
0.000287219
0.00020657
0.000208958
0.000211188
0.000213288
0.000215273
0.000217165
0.000218965
0.000220695
0.000222347
0.00022394
0.000225462
0.000226934
0.000228341
0.000229706
0.000231009
0.000232277
0.000233485
0.000234664
0.000235785
0.000236881
0.00023792
0.00023894
0.000239901
0.000240851
0.00024174
0.000242625
0.000243445
0.000244269
0.000245026
0.000245793
0.000246489
0.000247203
0.000247842
0.000248507
0.000249091
0.000249712
0.000250243
0.000250824
0.000251303
0.000251849
0.000252278
0.000252797
0.00025317
0.00025367
0.000253904
0.000254469
0.000254217
0.000253647
0.000256584
0.000241896
0.000204106
0.00020663
0.000208997
0.000211244
0.000213365
0.00021539
0.000217308
0.000219152
0.000220903
0.000222593
0.000224198
0.000225754
0.00022723
0.000228667
0.000230026
0.000231355
0.000232608
0.000233838
0.000234994
0.000236134
0.000237199
0.000238257
0.000239238
0.000240221
0.000241124
0.000242037
0.000242867
0.000243716
0.000244477
0.000245269
0.000245966
0.000246705
0.000247341
0.000248033
0.000248612
0.000249261
0.000249786
0.000250396
0.000250868
0.000251446
0.000251865
0.000252415
0.000252779
0.000253307
0.000253598
0.000254162
0.000254043
0.000255272
0.000253876
0.00025969
0.00222586
0.00182069
0.00156009
0.00138754
0.00125033
0.00113985
0.00104999
0.000975333
0.000912286
0.00085791
0.00081063
0.000769034
0.000732226
0.000699281
0.000669746
0.000642932
0.000618665
0.000596365
0.000576061
0.000557215
0.000539958
0.000523784
0.000508913
0.00049485
0.000481886
0.000469529
0.000458122
0.000447166
0.000437041
0.000427252
0.000418197
0.000409403
0.000401255
0.000393325
0.000385947
0.000378773
0.00037205
0.000365546
0.000359416
0.000353402
0.0003478
0.000342097
0.000336768
0.000331424
0.000325854
0.000320299
0.000315067
0.000308787
0.000304171
0.000300694
0.00252091
0.00239176
0.00221139
0.00203646
0.00187562
0.00173231
0.00160855
0.00149982
0.00140399
0.00131973
0.00124515
0.00117884
0.00111951
0.00106617
0.00101798
0.000974204
0.000934347
0.000897781
0.000864292
0.000833279
0.000804773
0.000778108
0.000753573
0.00073036
0.000709047
0.000688608
0.000669961
0.000651767
0.000635365
0.000618998
0.00060452
0.000589651
0.00057699
0.000563213
0.00055182
0.000539219
0.000529192
0.000517325
0.000508607
0.000497266
0.000489808
0.000478821
0.000472538
0.000461727
0.000456503
0.000445503
0.000441771
0.000428918
0.000423987
0.000414827
0.00222589
0.00182065
0.00156013
0.00138751
0.00125036
0.00113983
0.00105002
0.000975316
0.000912305
0.000857897
0.000810644
0.000769026
0.000732234
0.00069928
0.000669747
0.000642939
0.000618657
0.000596382
0.000576041
0.000557246
0.000539923
0.000523832
0.000508857
0.00049492
0.000481805
0.000469627
0.00045801
0.000447298
0.000436892
0.000427425
0.000418006
0.000409624
0.000401018
0.000393601
0.000385662
0.00037912
0.000371725
0.00036602
0.000359091
0.000354107
0.000347574
0.000343377
0.000337269
0.000334218
0.000328665
0.000326737
0.000321438
0.00032152
0.000314795
0.000338734
0.000204107
0.000206629
0.000208998
0.000211243
0.000213366
0.000215389
0.000217309
0.000219151
0.000220904
0.000222591
0.0002242
0.000225752
0.000227233
0.000228664
0.000230029
0.000231352
0.000232611
0.000233835
0.000234997
0.00023613
0.000237204
0.000238253
0.000239243
0.000240215
0.00024113
0.00024203
0.000242874
0.000243708
0.000244486
0.000245259
0.000245977
0.000246693
0.000247354
0.000248019
0.000248628
0.000249245
0.000249804
0.000250377
0.000250893
0.000251425
0.000251897
0.000252396
0.000252829
0.000253297
0.000253728
0.000253998
0.00025469
0.000252626
0.000252351
0.000238836
0.000206571
0.000208956
0.000211189
0.000213286
0.000215275
0.000217163
0.000218966
0.000220694
0.000222348
0.000223938
0.000225463
0.000226933
0.000228342
0.000229705
0.00023101
0.000232276
0.000233486
0.000234664
0.000235785
0.000236881
0.00023792
0.00023894
0.000239901
0.000240851
0.00024174
0.000242624
0.000243445
0.000244269
0.000245025
0.000245794
0.000246488
0.000247205
0.00024784
0.00024851
0.000249087
0.000249716
0.000250238
0.000250827
0.000251296
0.000251851
0.000252266
0.000252791
0.000253155
0.000253634
0.000253997
0.000254233
0.000255228
0.000254804
0.000255995
0.000249071
0.00201912
0.00151855
0.00126683
0.00110454
0.000988384
0.000900401
0.000830816
0.000773988
0.000726494
0.000685961
0.000650946
0.000620185
0.000593049
0.000568701
0.000546929
0.000527063
0.00050915
0.000492565
0.000477497
0.000463321
0.000450418
0.000438152
0.000426989
0.000416273
0.000406538
0.000397107
0.000388558
0.000380197
0.000372651
0.000365208
0.000358516
0.000351864
0.000345901
0.000339939
0.000334596
0.000329248
0.000324424
0.000319635
0.000315242
0.000310951
0.000306914
0.000303044
0.000299293
0.000295603
0.000292215
0.00028809
0.000285002
0.000280259
0.000276625
0.000275321
0.00222585
0.00182074
0.00156028
0.00138653
0.00125015
0.0011399
0.00104994
0.000975398
0.00091223
0.00085797
0.000810577
0.000769091
0.000732177
0.000699334
0.000669702
0.000642979
0.000618628
0.000596403
0.000576033
0.000557242
0.000539943
0.000523796
0.000508915
0.000494842
0.00048191
0.000469496
0.000458176
0.000447098
0.000437134
0.000427139
0.000418344
0.000409228
0.000401475
0.00039307
0.000386264
0.000378419
0.000372493
0.000365107
0.000359987
0.000353038
0.000348436
0.000342024
0.000337862
0.000331895
0.000328207
0.000322418
0.00031971
0.000311289
0.000310176
0.00032194
0.00201914
0.00151853
0.00126685
0.00110455
0.000988383
0.000900411
0.000830808
0.000774004
0.000726477
0.000685984
0.00065092
0.000620218
0.000593013
0.000568745
0.000546881
0.000527121
0.000509087
0.000492639
0.000477422
0.000463407
0.00045033
0.000438249
0.000426888
0.000416382
0.000406426
0.000397227
0.000388435
0.000380328
0.000372517
0.000365349
0.000358375
0.000352012
0.000345758
0.000340091
0.000334459
0.000329404
0.000324307
0.000319815
0.00031516
0.000311222
0.000306918
0.000303573
0.000299546
0.000296839
0.000292729
0.000291293
0.00028667
0.00028688
0.000275752
0.000289998
0.00020657
0.000208958
0.000211188
0.000213288
0.000215273
0.000217164
0.000218965
0.000220695
0.000222347
0.000223939
0.000225462
0.000226934
0.000228342
0.000229705
0.00023101
0.000232276
0.000233486
0.000234664
0.000235786
0.000236881
0.00023792
0.00023894
0.000239902
0.000240851
0.00024174
0.000242624
0.000243446
0.000244269
0.000245027
0.000245793
0.00024649
0.000247203
0.000247842
0.000248507
0.000249091
0.000249712
0.000250242
0.000250825
0.0002513
0.000251853
0.000252271
0.000252806
0.000253163
0.000253659
0.00025397
0.000254259
0.000254688
0.000252887
0.000257523
0.000237651
0.000199271
0.000201578
0.000203922
0.00020622
0.000208464
0.000210622
0.00021276
0.000214813
0.000216843
0.000218784
0.0002207
0.000222526
0.000224327
0.000226039
0.000227725
0.000229322
0.000230896
0.00023238
0.000233843
0.000235218
0.000236573
0.000237842
0.000239093
0.000240259
0.00024141
0.000242479
0.000243534
0.00024451
0.000245474
0.000246363
0.000247241
0.000248048
0.000248843
0.000249574
0.000250291
0.000250952
0.000251595
0.000252192
0.000252764
0.000253302
0.000253807
0.000254289
0.00025473
0.000255154
0.000255531
0.00025588
0.000256208
0.000256335
0.00025714
0.000256326
0.00020657
0.000208952
0.000211191
0.000213282
0.000215278
0.000217159
0.00021897
0.000220689
0.000222352
0.000223933
0.000225468
0.000226927
0.000228347
0.000229699
0.000231016
0.000232269
0.000233493
0.000234655
0.000235794
0.000236871
0.00023793
0.000238928
0.000239913
0.000240838
0.000241754
0.000242609
0.000243462
0.000244251
0.000245045
0.000245773
0.000246511
0.00024718
0.000247866
0.000248482
0.000249118
0.000249683
0.000250272
0.000250791
0.000251335
0.000251811
0.000252312
0.000252744
0.000253214
0.000253587
0.000254052
0.000254304
0.000254869
0.000254695
0.000255854
0.000253839
0.000204103
0.00020662
0.000209006
0.000211241
0.000213371
0.000215382
0.000217315
0.000219144
0.00022091
0.000222584
0.000224207
0.000225745
0.00022724
0.000228656
0.000230037
0.000231343
0.00023262
0.000233825
0.000235007
0.000236119
0.000237215
0.00023824
0.000239256
0.000240201
0.000241144
0.000242014
0.000242891
0.00024369
0.000244505
0.000245239
0.000245997
0.000246671
0.000247377
0.000247995
0.000248653
0.000249218
0.000249831
0.000250349
0.000250919
0.000251395
0.000251922
0.000252361
0.000252846
0.000253259
0.000253685
0.000254103
0.000254415
0.000254873
0.000254906
0.000256179
0.00020657
0.000208952
0.000211191
0.000213282
0.000215278
0.000217159
0.00021897
0.000220688
0.000222353
0.000223932
0.000225469
0.000226926
0.000228349
0.000229697
0.000231018
0.000232267
0.000233495
0.000234653
0.000235797
0.000236868
0.000237933
0.000238925
0.000239917
0.000240834
0.000241759
0.000242604
0.000243467
0.000244246
0.000245051
0.000245766
0.000246518
0.000247172
0.000247875
0.000248472
0.000249129
0.000249671
0.000250287
0.000250775
0.000251354
0.000251791
0.000252338
0.000252725
0.000253244
0.000253583
0.000254084
0.000254376
0.000254909
0.000254983
0.000255861
0.000255687
0.000199266
0.000201585
0.000203916
0.000206227
0.000208458
0.000210629
0.000212754
0.000214821
0.000216837
0.000218791
0.000220693
0.000222534
0.000224321
0.000226047
0.000227718
0.000229331
0.000230888
0.000232389
0.000233835
0.000235227
0.000236564
0.000237851
0.000239083
0.000240269
0.0002414
0.00024249
0.000243523
0.000244522
0.000245463
0.000246376
0.000247228
0.000248061
0.00024883
0.000249589
0.000250277
0.000250968
0.00025158
0.000252209
0.000252749
0.000253324
0.000253793
0.000254325
0.000254727
0.000255217
0.000255595
0.000255978
0.000256536
0.000256663
0.00025784
0.000258213
0.000257434
0.00025466
0.000256848
0.000278008
0.000258234
0.000248345
0.000257156
0.000273578
0.000252232
0.000254351
0.000254716
0.000277854
0.000257528
0.00025102
0.000264894
0.000266573
0.000258547
0.000259718
0.000266591
0.000296
0.000255195
0.00027111
0.00073509
0.000433053
0.000306816
0.000347507
0.000877683
0.000445793
0.000382009
0.000381627
0.00112071
0.000448606
0.000297558
0.000486193
0.00131244
0.000477436
0.000246637
0.000318622
0.00108891
0.000504445
0.000245328
0.000280418
0.000956382
0.000468715
0.000336019
0.000392416
0.00113174
0.000466967
0.000485404
0.000555291
0.00148733
0.000478646
0.000356892
0.000651966
0.00171567
0.000518744
0.000242961
0.000353316
0.00150843
0.000547921
0.000248678
0.000282458
0.000745847
0.000433595
0.000260787
0.000383949
0.000855322
0.000432345
0.000303119
0.000418524
0.00107081
0.000435948
0.000293094
0.000498335
0.00130183
0.000474501
0.000237759
0.00031586
0.00108451
0.000503141
0.000258565
0.000254024
0.000256357
0.000279593
0.000257287
0.000249367
0.000255467
0.00027471
0.000251485
0.000252616
0.000253567
0.000278146
0.000257482
0.000251084
0.00026492
0.000264728
0.000258584
0.000259494
0.000266835
0.00029608
0.000135556
0.000198235
0.000222031
0.000223568
0.000137496
0.000201032
0.000225042
0.000226253
0.00013839
0.000204392
0.000229328
0.000230508
0.00014017
0.000207968
0.000233409
0.000234336
0.000141274
0.000210536
0.00023646
0.00023719
0.000143112
0.000214455
0.00024102
0.000241475
0.000144457
0.000217454
0.000244522
0.00024464
0.000146375
0.000221496
0.00024925
0.000249015
0.000147963
0.000224961
0.000253273
0.000252555
0.00015
0.000229209
0.000258213
0.000257035
0.000151834
0.000233134
0.000262737
0.000260923
0.000154029
0.000237665
0.000267963
0.000265529
0.000156117
0.000242051
0.00027298
0.00026972
0.000158513
0.000246933
0.00027855
0.000274454
0.000160875
0.000251795
0.000284057
0.000278894
0.000163516
0.000257087
0.00029002
0.000283734
0.000166178
0.000262449
0.000296014
0.000288348
0.000169112
0.000268202
0.000302395
0.000293236
0.000172114
0.00027409
0.000308866
0.00029792
0.000175392
0.000280347
0.000315668
0.000302755
0.00017878
0.000286783
0.000322583
0.000307362
0.00018246
0.00029357
0.000329771
0.000311963
0.000186296
0.000300562
0.00033706
0.000316236
0.000190443
0.000307881
0.000344548
0.000320329
0.00019479
0.000315406
0.000352083
0.000323954
0.000199462
0.000323213
0.00035971
0.000327196
0.000204348
0.000331186
0.000367274
0.000329799
0.000209544
0.000339348
0.000374764
0.000331643
0.000214993
0.000347573
0.000382009
0.000332789
0.000220849
0.000355834
0.000388924
0.000333083
0.000227248
0.000363944
0.000395246
0.000332866
0.000234524
0.00037176
0.000400757
0.000331288
0.000242746
0.00037902
0.000404598
0.000329394
0.000251479
0.000385506
0.000407269
0.000326697
0.000260253
0.000391132
0.000407748
0.00032349
0.00026842
0.000395486
0.000406672
0.000319035
0.000276689
0.000398352
0.000401981
0.000314461
0.000283415
0.000400071
0.000394266
0.000309196
0.00028799
0.000400583
0.000382712
0.000303839
0.000291058
0.000399457
0.000369008
0.000298232
0.000291963
0.000395561
0.00035157
0.000292452
0.000291171
0.000390344
0.000331549
0.00028749
0.00028958
0.000383
0.000311163
0.000283068
0.000285294
0.000376148
0.000288948
0.000279491
0.000279109
0.000374291
0.000270199
0.000276299
0.00027064
0.000373693
0.000257071
0.000273485
0.0002616
0.000348106
0.00024932
0.000270259
0.000253032
0.000257834
0.000244681
0.000269997
0.000231225
0.000228086
0.000241127
0.000271349
0.00023271
0.000244277
0.000255921
0.000273125
0.000186865
0.000615846
0.000647031
0.000491653
0.000190743
0.000630389
0.000663337
0.000506388
0.00019232
0.00064336
0.000679311
0.000521215
0.000195694
0.000658538
0.000697124
0.000537909
0.000197848
0.000670772
0.000711399
0.00055047
0.000201215
0.000686575
0.00073012
0.000568221
0.000203854
0.000700766
0.000746711
0.000582933
0.000207325
0.000717257
0.000766191
0.000601312
0.000210403
0.000733247
0.000784986
0.000618223
0.000214072
0.000750897
0.000805795
0.000637716
0.000217569
0.000768648
0.000826725
0.000656766
0.000221519
0.000787797
0.000849301
0.000677804
0.000225442
0.000807409
0.000872477
0.00069903
0.000229747
0.000828341
0.000897201
0.000721946
0.000234124
0.00085001
0.000922848
0.000745435
0.000238856
0.000873014
0.000950076
0.000770493
0.000243736
0.000896987
0.000978481
0.000796378
0.000248969
0.000922365
0.00100857
0.000823765
0.000254419
0.000948925
0.00103996
0.000852079
0.000260239
0.000977007
0.00107311
0.000881806
0.00026634
0.0010065
0.0011078
0.000912421
0.000272848
0.00103765
0.00114436
0.000944355
0.000279707
0.00107043
0.00118258
0.000977111
0.000287025
0.00110503
0.00122266
0.0010108
0.000294777
0.00114146
0.00126437
0.00104482
0.000303049
0.00117988
0.00130775
0.001079
0.000311837
0.00122033
0.00135244
0.00111252
0.000321216
0.00126291
0.00139825
0.00114486
0.0003312
0.00130772
0.00144452
0.00117492
0.000341884
0.00135515
0.00149224
0.0012005
0.000353401
0.00140534
0.00154179
0.00121926
0.000365883
0.00145814
0.0015932
0.00122955
0.000380183
0.00151313
0.0016459
0.00122259
0.000395616
0.00156958
0.00169997
0.00120928
0.000411374
0.00162592
0.00175342
0.00119137
0.000426867
0.00167957
0.00180216
0.00115035
0.000441663
0.00172819
0.00184357
0.00109927
0.000455012
0.00176694
0.00187058
0.00104573
0.000466162
0.00178863
0.00185439
0.000985444
0.000475249
0.00180481
0.00183481
0.000930108
0.000480099
0.00179711
0.00178267
0.000856541
0.000479658
0.00177676
0.00166615
0.00078456
0.000475782
0.00175866
0.00153214
0.000707337
0.000462725
0.001709
0.00133547
0.000634777
0.000446596
0.00160035
0.00109405
0.000575668
0.000429229
0.00146567
0.000849125
0.000537799
0.000414096
0.00128023
0.000629505
0.000518926
0.000379416
0.000863603
0.000486596
0.000507234
0.000324873
0.000401781
0.000432226
0.000532033
0.000263291
0.000275646
0.000436176
0.000500176
0.000196248
0.0007162
0.000768501
0.000568128
0.000200462
0.000733825
0.000788069
0.000584963
0.000202123
0.000748721
0.000806226
0.000601584
0.00020573
0.000766402
0.000826563
0.000620092
0.000208048
0.000780997
0.000843416
0.000634417
0.000211624
0.000799334
0.00086474
0.000653964
0.00021446
0.000816171
0.000884184
0.000670683
0.000218136
0.000835392
0.000906492
0.000690927
0.000221432
0.000854266
0.00092837
0.000710037
0.000225312
0.000874894
0.000952282
0.000731553
0.000229041
0.000895784
0.000976549
0.000752978
0.00023321
0.000918185
0.00100252
0.00077625
0.000237377
0.000941222
0.00102932
0.000800055
0.000241914
0.000965707
0.00105773
0.00082548
0.000246548
0.00099111
0.00108727
0.000851824
0.000251526
0.00101799
0.00111846
0.000879739
0.000256677
0.00104605
0.001151
0.000908826
0.000262174
0.00107568
0.00118527
0.000939513
0.000267908
0.00110673
0.00122133
0.000971556
0.000274008
0.00113948
0.00125931
0.00100521
0.000280411
0.00117387
0.00129909
0.00104027
0.000287218
0.00121012
0.0013409
0.00107691
0.000294396
0.00124823
0.00138463
0.00111486
0.000302028
0.00128837
0.00143041
0.00115416
0.000310103
0.00133059
0.00147814
0.00119441
0.00031867
0.001375
0.00152781
0.00123544
0.000327762
0.00142165
0.00157924
0.00127661
0.000337441
0.00147065
0.00163228
0.0013174
0.000347734
0.00152205
0.00168661
0.00135682
0.000358709
0.00157597
0.00174191
0.00139385
0.000370429
0.00163243
0.0017979
0.00142661
0.000383191
0.00169143
0.00185616
0.00145162
0.000398105
0.00175198
0.00191445
0.0014674
0.000414117
0.00181319
0.00197151
0.00147179
0.000430467
0.00187358
0.0020255
0.00145278
0.000446637
0.00193078
0.00207528
0.00144171
0.000461879
0.00198157
0.00211593
0.00138421
0.000475693
0.0020224
0.00214582
0.00132054
0.000487321
0.00204532
0.00213685
0.00123903
0.000496756
0.00205819
0.00210487
0.00115244
0.000501944
0.00205226
0.0020735
0.00105812
0.000501506
0.00201885
0.0019259
0.000953737
0.000497349
0.00199187
0.00177404
0.000850262
0.000485014
0.00191186
0.00155253
0.000744971
0.000471134
0.00177304
0.00128322
0.000664855
0.000453879
0.00160812
0.000997952
0.000606942
0.00043686
0.00139254
0.000733226
0.000578566
0.00039765
0.000928411
0.000557873
0.00057124
0.000337467
0.000425709
0.000522861
0.00059304
0.000268705
0.000291052
0.000529455
0.000545763
0.000186918
0.00061572
0.000647098
0.000491676
0.000190799
0.000630261
0.000663405
0.000506402
0.000192377
0.000643231
0.000679369
0.000521224
0.000195753
0.000658425
0.000697197
0.00053792
0.000197909
0.000670651
0.00071146
0.000550471
0.000201279
0.000686467
0.000730193
0.000568218
0.00020392
0.000700662
0.000746785
0.000582927
0.000207395
0.000717168
0.000766279
0.000601303
0.000210476
0.00073317
0.000785086
0.000618214
0.000214149
0.00075084
0.000805913
0.000637709
0.000217649
0.000768612
0.000826863
0.000656763
0.000221603
0.000787788
0.000849462
0.000677802
0.000225529
0.000807429
0.000872663
0.000699026
0.000229838
0.000828394
0.000897414
0.000721937
0.000234219
0.000850095
0.000923083
0.000745414
0.000238954
0.000873132
0.000950332
0.000770467
0.000243838
0.000897137
0.00097875
0.000796331
0.000249074
0.000922544
0.00100884
0.000823693
0.000254527
0.000949131
0.00104024
0.000851968
0.00026035
0.000977237
0.00107338
0.000881645
0.000266455
0.00100675
0.00110807
0.000912201
0.000272966
0.00103791
0.00114461
0.000944132
0.000279829
0.0010707
0.00118281
0.00097683
0.00028715
0.00110531
0.00122287
0.00101047
0.000294907
0.00114175
0.00126456
0.0010444
0.000303183
0.00118019
0.00130793
0.00107849
0.000311976
0.00122064
0.00135261
0.00111189
0.000321362
0.00126323
0.00139841
0.0011441
0.000331354
0.00130805
0.00144469
0.00117399
0.000342048
0.0013555
0.00149243
0.0011994
0.000353572
0.00140571
0.00154202
0.00121797
0.000366059
0.00145855
0.0015935
0.0012281
0.00038037
0.00151359
0.00164633
0.00122113
0.000395817
0.00157011
0.00170042
0.00120766
0.000411602
0.00162657
0.00175409
0.00118992
0.000427131
0.00168037
0.001803
0.00114937
0.000441967
0.00172914
0.0018446
0.00109877
0.000455338
0.00176805
0.00187183
0.00104593
0.000466529
0.00178991
0.00185576
0.000986464
0.000475646
0.00180627
0.00183631
0.000931909
0.000480564
0.00179897
0.00178424
0.000859092
0.000480125
0.00177889
0.00166779
0.000787634
0.000476189
0.00176054
0.00153413
0.000710857
0.000463145
0.00171057
0.00133824
0.000638579
0.000446991
0.00160126
0.00109816
0.000580008
0.000429593
0.00146605
0.000854192
0.000541453
0.000414405
0.0012804
0.00063689
0.000523329
0.000379957
0.000864498
0.000486575
0.000512039
0.000327062
0.000405128
0.000440915
0.000536913
0.00026588
0.000280963
0.000447782
0.000502978
0.000135745
0.000198395
0.000222131
0.000223604
0.000137688
0.000201192
0.000225145
0.000226296
0.000138585
0.000204555
0.000229431
0.000230543
0.000140368
0.00020813
0.000233506
0.000234362
0.000141474
0.000210701
0.000236565
0.000237223
0.000143316
0.00021462
0.000241121
0.000241498
0.000144662
0.00021762
0.000244628
0.000244667
0.000146585
0.000221661
0.000249357
0.000249035
0.000148175
0.000225128
0.000253379
0.000252578
0.000150215
0.000229376
0.00025832
0.000257055
0.000152051
0.000233301
0.000262843
0.000260943
0.000154248
0.000237831
0.000268067
0.000265546
0.000156338
0.000242216
0.000273081
0.000269736
0.000158734
0.000247094
0.00027865
0.000274468
0.000161096
0.000251952
0.000284152
0.000278905
0.000163736
0.000257239
0.00029011
0.000283741
0.000166396
0.000262595
0.000296099
0.000288351
0.000169327
0.000268342
0.000302475
0.000293233
0.000172324
0.000274222
0.000308939
0.000297909
0.000175597
0.000280472
0.000315736
0.000302735
0.00017898
0.0002869
0.000322645
0.000307333
0.000182653
0.00029368
0.000329829
0.000311918
0.00018648
0.000300665
0.000337115
0.000316182
0.000190619
0.00030798
0.000344602
0.000320265
0.000194956
0.000315501
0.000352138
0.000323886
0.000199618
0.000323307
0.000359767
0.00032712
0.000204491
0.000331279
0.000367337
0.000329697
0.000209676
0.000339442
0.000374838
0.000331762
0.000215114
0.00034767
0.000382083
0.0003326
0.000220959
0.000355937
0.00038901
0.000333038
0.000227347
0.000364054
0.000395325
0.00033285
0.000234598
0.000371882
0.000400772
0.000331288
0.00024286
0.000379173
0.000405266
0.000329421
0.000251525
0.000385631
0.000406917
0.000326785
0.000260337
0.000391304
0.000407921
0.00032357
0.000268513
0.000395683
0.000406907
0.000319174
0.000276782
0.000398565
0.000402236
0.000314613
0.000283527
0.000400308
0.000394563
0.000309378
0.00028811
0.000400834
0.000383017
0.000304009
0.000291185
0.000399756
0.000369318
0.000298376
0.000292106
0.000395908
0.000351859
0.000292528
0.000291316
0.000390743
0.000331814
0.000287441
0.00028974
0.000383486
0.000311379
0.000282879
0.000285449
0.000376442
0.000289134
0.000279161
0.000279211
0.000374407
0.000270334
0.000275939
0.000270779
0.000373514
0.000257011
0.000273305
0.000261683
0.000348046
0.000248945
0.000270262
0.000253384
0.000257999
0.000244526
0.000270159
0.000231361
0.000228122
0.000240297
0.000271615
0.000233239
0.000244125
0.000256284
0.000276035
0.00015067
0.000152166
0.0001546
0.000156759
0.000158339
0.000160763
0.000162472
0.000164942
0.000166822
0.000169332
0.00017137
0.000173919
0.000176093
0.000178675
0.000180956
0.000183555
0.000185906
0.000188494
0.000190865
0.000193401
0.000195732
0.000198157
0.000200376
0.000202625
0.000204659
0.000206667
0.000208453
0.000210174
0.000211682
0.000213121
0.000214379
0.000215594
0.000216675
0.000217689
0.000218653
0.000219492
0.000220327
0.000220916
0.000221623
0.000221647
0.000221865
0.00022172
0.000221175
0.000220466
0.00021932
0.000217737
0.000215604
0.000213612
0.000212527
0.000212176
0.000162081
0.000164231
0.000167479
0.000170498
0.000172769
0.000176195
0.000178786
0.00018236
0.000185337
0.000189089
0.000192449
0.000196417
0.000200147
0.000204359
0.000208441
0.000212905
0.000217306
0.000222001
0.00022666
0.000231526
0.000236339
0.000241257
0.000246058
0.000250827
0.00025536
0.000259685
0.000263604
0.000267104
0.000270015
0.000272373
0.000273086
0.000274383
0.000274237
0.000273462
0.000272268
0.000270447
0.000268656
0.000266824
0.000265202
0.000264008
0.000262678
0.000262926
0.000262447
0.000262694
0.000263489
0.000264566
0.000266447
0.00027006
0.000278538
0.000284579
0.000162014
0.000164257
0.000167608
0.000170735
0.000173106
0.000176658
0.000179384
0.0001831
0.000186252
0.000190173
0.00019375
0.000197927
0.000201926
0.000206401
0.000210813
0.000215612
0.00022042
0.000225541
0.000230706
0.00023611
0.000241549
0.000247141
0.000252709
0.000258307
0.000263765
0.000269076
0.000274062