/*--------------------------------*- C++ -*----------------------------------*\
| =========                 |                                                 |
| \\      /  F ield         | OpenFOAM: The Open Source CFD Toolbox           |
|  \\    /   O peration     | Version:                                        |
|   \\  /    A nd           | Website:  www.openfoam.com                      |
|    \\/     M anipulation  |                                                 |
\*---------------------------------------------------------------------------*/
FoamFile
{
    version     2.0;
    format      ascii;
    class       volScalarField;
    location    "1.5";
    object      p;
}
// * * * * * * * * * * * * * * * * * * * * * * * * * * * * * * * * * * * * * //

dimensions      [0 2 -2 0 0 0 0];


internalField   nonuniform List<scalar> 
3850
(
14.535
13.133
12.3217
12.0817
11.9752
11.8521
11.7294
11.623
11.5277
11.4367
11.3476
11.2599
11.1736
11.0881
11.0033
10.9188
10.8344
10.7501
10.6663
10.5826
10.4992
10.4157
10.3322
10.2485
10.165
10.081
9.99726
9.91312
9.82919
9.74479
9.66064
9.57595
9.49162
9.40668
9.32229
9.23724
9.1531
9.06839
8.9853
8.90229
8.82302
8.74634
8.67949
8.62222
8.58989
8.58126
8.62341
8.66591
8.63578
8.54653
12.2416
12.0041
11.82
11.7105
11.6453
11.5776
11.5047
11.4336
11.3648
11.296
11.2262
11.1551
11.0828
11.0095
10.9352
10.8599
10.784
10.7075
10.63
10.5517
10.4725
10.3928
10.3124
10.2316
10.1503
10.0685
9.98633
9.90393
9.82116
9.7382
9.65483
9.57135
9.48747
9.40358
9.31928
9.23516
9.15066
9.0667
8.9824
8.89941
8.81693
8.73814
8.66282
8.59827
8.55036
8.53367
8.59134
8.7626
9.32439
10.5729
12.9946
12.4918
12.2389
12.1194
12.0222
11.9177
11.8088
11.7019
11.5991
11.4999
11.4037
11.3096
11.2172
11.1264
11.0368
10.9482
10.8603
10.7726
10.6856
10.5993
10.5136
10.4281
10.3429
10.2579
10.173
10.0881
10.0033
9.91842
9.83363
9.74872
9.66386
9.57886
9.49388
9.40874
9.3236
9.23829
9.15296
9.06771
8.98195
8.89598
8.80996
8.72401
8.63848
8.55287
8.4767
8.41529
8.41286
8.56177
9.18722
10.6994
12.2416
12.0042
11.82
11.7105
11.6453
11.5776
11.5047
11.4336
11.3648
11.296
11.2262
11.1551
11.0828
11.0095
10.9352
10.8599
10.784
10.7075
10.63
10.5517
10.4725
10.3928
10.3124
10.2316
10.1503
10.0685
9.98636
9.9039
9.82119
9.73814
9.65485
9.57121
9.4874
9.40321
9.3189
9.23411
9.1492
9.06356
8.97755
8.88982
8.8013
8.7087
8.61238
8.50604
8.38837
8.24753
8.0894
7.91557
7.9108
8.55799
14.5349
13.1332
12.3216
12.0817
11.9751
11.8521
11.7294
11.623
11.5277
11.4367
11.3475
11.2599
11.1736
11.0881
11.0033
10.9188
10.8344
10.7501
10.6662
10.5827
10.4992
10.4157
10.3322
10.2486
10.1649
10.0811
9.99718
9.91321
9.82908
9.74488
9.66045
9.57596
9.49123
9.40641
9.32129
9.23601
9.15022
9.064
8.97663
8.88784
8.79621
8.70023
8.59562
8.47565
8.32824
8.1165
7.79962
7.22278
6.06156
3.9532
12.2412
12.0028
11.8185
11.7119
11.6456
11.5776
11.5047
11.4336
11.3648
11.296
11.2262
11.1551
11.0828
11.0095
10.9352
10.8599
10.784
10.7075
10.6301
10.5516
10.4726
10.3927
10.3125
10.2316
10.1503
10.0685
9.98642
9.90386
9.82126
9.7381
9.65496
9.57125
9.48766
9.40349
9.31962
9.2352
9.1514
9.06722
8.98431
8.90191
8.82253
8.74646
8.67941
8.62267
8.58768
8.57758
8.60602
8.59747
8.54025
8.01949
9.94008
10.9085
11.2296
11.2617
11.2806
11.2906
11.2773
11.2473
11.2086
11.164
11.1137
11.0587
10.9998
10.938
10.8734
10.8066
10.7378
10.6673
10.5951
10.5215
10.4466
10.3705
10.2933
10.2153
10.1364
10.057
9.97685
9.89613
9.81464
9.73286
9.65042
9.56781
9.48457
9.40133
9.31747
9.23385
9.14963
9.06604
8.98198
8.89945
8.81714
8.73861
8.66354
8.59984
8.55196
8.53821
8.58045
8.77513
9.21057
10.5076
10.5794
11.3329
11.6623
11.6809
11.652
11.6219
11.5724
11.5069
11.4355
11.3623
11.2869
11.2097
11.1315
11.0528
10.9735
10.8938
10.8138
10.7332
10.6524
10.5713
10.4898
10.4081
10.326
10.2436
10.1611
10.0783
9.99524
9.91183
9.82818
9.74429
9.66025
9.57606
9.49168
9.40717
9.32245
9.23765
9.15258
9.06751
8.98196
8.89644
8.81054
8.72484
8.63912
8.5556
8.47959
8.42057
8.41413
8.57371
9.08414
10.7196
9.94007
10.9085
11.2295
11.2617
11.2806
11.2906
11.2774
11.2473
11.2086
11.164
11.1137
11.0587
10.9999
10.938
10.8734
10.8066
10.7378
10.6673
10.5951
10.5215
10.4466
10.3705
10.2933
10.2153
10.1365
10.057
9.9769
9.89607
9.81468
9.7328
9.65045
9.56766
9.48451
9.40096
9.31711
9.23283
9.14821
9.06294
8.97702
8.88968
8.8009
8.7083
8.61195
8.50506
8.39045
8.25369
8.0973
7.92337
7.83301
8.19405
12.2411
12.0029
11.8185
11.7119
11.6456
11.5776
11.5047
11.4336
11.3648
11.296
11.2262
11.1551
11.0828
11.0095
10.9352
10.8599
10.784
10.7075
10.63
10.5517
10.4725
10.3928
10.3124
10.2316
10.1503
10.0685
9.98632
9.90395
9.82114
9.73819
9.65477
9.57126
9.48727
9.40323
9.31864
9.23398
9.14855
9.0628
8.97568
8.88728
8.79575
8.69932
8.59245
8.47529
8.32602
8.13391
7.81136
7.26402
6.06345
3.54578
12.9936
12.4886
12.232
12.1251
12.0227
11.9177
11.8089
11.7019
11.5991
11.4999
11.4037
11.3096
11.2173
11.1264
11.0368
10.9482
10.8603
10.7726
10.6857
10.5993
10.5136
10.4281
10.343
10.2579
10.173
10.0881
10.0033
9.91839
9.83369
9.74869
9.66396
9.57886
9.49408
9.40886
9.3241
9.23888
9.15441
9.06959
8.98617
8.90329
8.82354
8.74722
8.67997
8.62368
8.5882
8.57758
8.60245
8.58402
8.5084
7.93903
10.5794
11.3337
11.6601
11.6832
11.6522
11.622
11.5725
11.5069
11.4355
11.3623
11.2869
11.2097
11.1315
11.0528
10.9735
10.8938
10.8138
10.7333
10.6524
10.5713
10.4898
10.4081
10.326
10.2437
10.1611
10.0783
9.99521
9.91187
9.82815
9.74434
9.66023
9.57615
9.4917
9.40737
9.32262
9.23816
9.15328
9.06901
8.98447
8.90137
8.81875
8.73986
8.66483
8.6008
8.55357
8.53922
8.58053
8.76383
9.18492
10.4544
11.1878
11.7846
12.099
12.1471
12.0287
11.9301
11.8439
11.7448
11.6416
11.5402
11.4404
11.3423
11.2462
11.152
11.0595
10.9683
10.8782
10.789
10.7005
10.6125
10.5252
10.4382
10.3517
10.2654
10.1793
10.0932
10.0076
9.92205
9.83668
9.75131
9.6661
9.58082
9.49561
9.41026
9.32493
9.23947
9.15396
9.06829
8.9825
8.89656
8.81055
8.72442
8.63894
8.5556
8.47979
8.42249
8.41599
8.5683
9.04778
10.6867
10.5794
11.3338
11.6601
11.6832
11.6522
11.622
11.5725
11.5069
11.4355
11.3623
11.2869
11.2097
11.1315
11.0528
10.9735
10.8939
10.8138
10.7333
10.6524
10.5713
10.4898
10.4081
10.326
10.2437
10.1611
10.0783
9.99524
9.91184
9.82817
9.74428
9.66024
9.57602
9.49161
9.40702
9.32221
9.23717
9.15177
9.06592
8.97936
8.89147
8.80223
8.7091
8.61267
8.50592
8.39146
8.25621
8.10009
7.91745
7.79527
8.09022
12.9936
12.4887
12.232
12.1251
12.0227
11.9177
11.8089
11.7019
11.5991
11.4999
11.4037
11.3096
11.2172
11.1264
11.0368
10.9482
10.8603
10.7726
10.6856
10.5994
10.5136
10.4281
10.3429
10.2579
10.173
10.0881
10.0033
9.91845
9.83361
9.74874
9.66381
9.57882
9.49374
9.40854
9.32318
9.23759
9.15162
9.06495
8.97779
8.88863
8.79617
8.69941
8.59316
8.4755
8.32662
8.13732
7.817
7.26115
6.01479
3.44141
12.2412
12.0027
11.8185
11.7119
11.6456
11.5776
11.5047
11.4336
11.3648
11.296
11.2262
11.1551
11.0829
11.0095
10.9352
10.8599
10.784
10.7075
10.6301
10.5516
10.4726
10.3927
10.3125
10.2316
10.1503
10.0685
9.98642
9.90386
9.82127
9.7381
9.65498
9.57124
9.48768
9.40348
9.31965
9.23519
9.15141
9.06716
8.98431
8.90184
8.82268
8.74661
8.68019
8.62403
8.59178
8.58607
8.61707
8.64799
8.57196
8.35545
9.94006
10.9085
11.2296
11.2618
11.2807
11.2906
11.2774
11.2473
11.2086
11.164
11.1137
11.0587
10.9998
10.938
10.8734
10.8066
10.7378
10.6673
10.5951
10.5215
10.4466
10.3705
10.2933
10.2153
10.1365
10.057
9.97687
9.89612
9.81466
9.73286
9.65044
9.5678
9.48459
9.40131
9.3175
9.23383
9.14966
9.06596
8.98198
8.8994
8.81728
8.7386
8.66459
8.60087
8.5578
8.53803
8.60486
8.7593
9.26974
10.4804
10.5794
11.3329
11.6623
11.6809
11.652
11.6219
11.5725
11.5069
11.4355
11.3623
11.2869
11.2097
11.1315
11.0528
10.9735
10.8938
10.8138
10.7332
10.6524
10.5713
10.4898
10.4081
10.326
10.2436
10.1611
10.0783
9.99525
9.91183
9.82818
9.74429
9.66026
9.57606
9.49169
9.40717
9.32246
9.23765
9.1526
9.06741
8.98191
8.8965
8.81065
8.7252
8.63966
8.55802
8.47893
8.42633
8.41497
8.57843
9.09138
10.6968
9.94007
10.9085
11.2295
11.2618
11.2807
11.2906
11.2774
11.2473
11.2086
11.164
11.1137
11.0587
10.9999
10.938
10.8734
10.8066
10.7378
10.6673
10.5951
10.5215
10.4466
10.3705
10.2933
10.2153
10.1365
10.057
9.97691
9.89608
9.81469
9.7328
9.65046
9.56766
9.48452
9.40096
9.31712
9.23283
9.14822
9.06289
8.97697
8.88969
8.80101
8.70853
8.61239
8.50624
8.39128
8.25532
8.09882
7.9236
7.83021
8.18698
12.2411
12.0029
11.8185
11.7119
11.6456
11.5777
11.5048
11.4337
11.3648
11.296
11.2262
11.1551
11.0828
11.0095
10.9352
10.8599
10.784
10.7075
10.63
10.5517
10.4725
10.3928
10.3124
10.2316
10.1503
10.0685
9.98633
9.90395
9.82115
9.73819
9.65478
9.57126
9.48728
9.40323
9.31864
9.23398
9.14855
9.06277
8.97565
8.88728
8.79581
8.69943
8.5928
8.47602
8.32682
8.13485
7.81273
7.26514
6.06576
3.54716
14.535
13.133
12.3217
12.0818
11.9752
11.8521
11.7294
11.623
11.5277
11.4367
11.3475
11.2599
11.1736
11.0881
11.0033
10.9188
10.8344
10.7501
10.6663
10.5826
10.4992
10.4157
10.3322
10.2485
10.165
10.081
9.99726
9.91314
9.82919
9.74481
9.66064
9.57597
9.49162
9.4067
9.32228
9.23727
9.15307
9.06836
8.98522
8.90235
8.82311
8.74678
8.68043
8.62475
8.59441
8.59196
8.63885
8.69701
8.68881
8.62035
12.2416
12.0041
11.82
11.7106
11.6453
11.5776
11.5047
11.4336
11.3648
11.296
11.2262
11.1551
11.0828
11.0095
10.9352
10.8599
10.784
10.7075
10.63
10.5517
10.4725
10.3928
10.3124
10.2316
10.1503
10.0685
9.98633
9.90396
9.82116
9.73823
9.65482
9.57139
9.48744
9.40363
9.31925
9.23523
9.15062
9.0667
8.9822
8.89959
8.81692
8.73861
8.66372
8.60037
8.55474
8.54079
8.60897
8.78514
9.37311
10.5769
12.9946
12.4918
12.2389
12.1194
12.0222
11.9177
11.8088
11.7019
11.5991
11.4999
11.4037
11.3096
11.2172
11.1264
11.0368
10.9482
10.8603
10.7726
10.6856
10.5993
10.5136
10.4281
10.3429
10.2579
10.173
10.0881
10.0033
9.91843
9.83364
9.74873
9.66387
9.57886
9.49389
9.40874
9.32361
9.23832
9.15309
9.06736
8.98161
8.89633
8.81039
8.72425
8.63926
8.55474
8.47926
8.42048
8.4214
8.57225
9.19757
10.6972
12.2416
12.0042
11.82
11.7105
11.6453
11.5776
11.5047
11.4337
11.3648
11.296
11.2262
11.1551
11.0828
11.0095
10.9352
10.8599
10.784
10.7075
10.63
10.5516
10.4725
10.3928
10.3124
10.2316
10.1503
10.0685
9.98637
9.90391
9.8212
9.73815
9.65485
9.57122
9.4874
9.40322
9.31891
9.23414
9.14921
9.06349
8.97732
8.88989
8.8016
8.70899
8.61305
8.50737
8.39042
8.25074
8.09362
7.91937
7.91304
8.55698
14.5349
13.1332
12.3216
12.0817
11.9752
11.8522
11.7295
11.623
11.5277
11.4367
11.3475
11.2599
11.1736
11.0881
11.0033
10.9188
10.8344
10.7501
10.6662
10.5827
10.4992
10.4157
10.3322
10.2486
10.1649
10.0811
9.99719
9.91322
9.82909
9.74488
9.66046
9.57597
9.49123
9.40642
9.3213
9.23602
9.15022
9.06393
8.97655
8.88787
8.79632
8.70046
8.59615
8.47678
8.32993
8.11872
7.8024
7.22509
6.06307
3.95384
7.66096
13.1731
20.8753
25.5831
13.6891
19.5663
26.6494
31.4512
14.0377
20.2393
27.5686
32.9356
10.8244
16.9594
24.2829
29.8185
-0.785778
6.79546
16.6302
20.6566
7.26266
12.8214
20.9825
26.6427
13.2647
19.6445
27.1707
32.2843
13.9895
20.2843
28.0938
33.6895
10.772
16.952
24.8236
30.5902
-1.04135
6.94768
16.8173
21.6305
7.13176
12.8818
21.2689
26.9666
13.2
19.736
27.4401
32.6005
13.9752
20.4047
28.3442
33.9878
10.7263
17.0452
25.0452
30.8812
-1.11239
7.13414
17.0263
21.8977
7.17101
13.0365
20.94
26.5805
13.3603
19.6152
27.1343
32.2956
13.9517
20.3042
28.0762
33.6894
10.7613
16.9603
24.8217
30.5861
-1.04286
6.95252
16.8213
21.6341
7.66581
13.2371
20.8701
25.5814
13.7216
19.5804
26.6439
31.4544
14.042
20.2424
27.5632
32.9299
10.8237
16.9647
24.2783
29.808
-0.783856
6.79846
16.6298
20.6531
10.0074
10.0023
10.0008
9.99584
10.0098
10.0044
10.0041
10.0011
10.0114
10.0058
10.0054
10.0018
10.0119
10.006
10.0043
9.99905
10.0109
10.0044
10.002
9.99552
10.0081
10.0011
9.99804
9.99046
10.0034
9.9958
9.99227
9.98378
9.99654
9.9884
9.98451
9.97512
9.9874
9.97871
9.97437
9.96403
9.97569
9.96643
9.96174
9.95037
9.96118
9.95129
9.94611
9.93359
9.94349
9.93293
9.92735
9.91356
9.92229
9.911
9.90486
9.88966
9.89714
9.88504
9.87844
9.86171
9.86754
9.85456
9.84736
9.82882
9.83292
9.81899
9.8112
9.79055
9.79264
9.77765
9.76911
9.74595
9.74593
9.72979
9.7205
9.69446
9.6919
9.67448
9.66426
9.63483
9.62952
9.61071
9.59951
9.56615
9.55757
9.53721
9.52483
9.48686
9.47464
9.45258
9.43894
9.39564
9.37902
9.35508
9.33992
9.29034
9.2687
9.24271
9.22584
9.16899
9.14119
9.11298
9.09407
9.0287
8.99345
8.96292
8.94174
8.86654
8.82179
8.78876
8.76529
8.67832
8.62194
8.58615
8.56072
8.45997
8.38878
8.34988
8.32282
8.20621
8.11615
8.07388
8.04582
7.91131
7.79604
7.7508
7.72302
7.56839
7.42046
7.37196
7.34665
7.16996
6.97723
6.92646
6.90744
6.70727
6.45565
6.40322
6.39601
6.17204
5.84426
5.79102
5.8037
5.55804
5.13335
5.08027
5.12452
4.86034
4.31835
4.26475
4.35207
4.07866
3.40156
3.34511
3.48831
3.22022
2.39759
2.33142
2.54248
2.30427
1.33312
1.2487
1.53935
1.36476
0.250806
0.13157
0.518136
0.436485
-0.798512
-0.979718
-0.478768
-0.416219
-1.75295
-2.04547
-1.38957
-1.07314
-2.55672
-3.00817
-2.1337
-1.41729
-3.14781
-3.77098
-2.62868
-1.41048
-3.48326
-4.21828
-2.8839
-0.924433
-3.59513
-4.28839
-2.99403
0.744921
-3.57373
-3.92532
-2.39576
4.32271
-3.49646
-2.02515
0.909407
8.91583
-2.69259
2.57225
9.26996
13.7428
10.0074
10.0015
9.99953
9.99095
10.0095
10.0024
9.99981
9.99112
10.0113
10.0037
9.99973
9.98927
10.0119
10.0037
9.99849
9.98619
10.011
10.0022
9.996
9.98196
10.0082
9.99872
9.99175
9.97616
10.0035
9.99348
9.98571
9.96861
9.99666
9.986
9.97755
9.9589
9.98757
9.97631
9.96709
9.94678
9.9759
9.96397
9.95404
9.93185
9.96144
9.94884
9.93807
9.91378
9.9438
9.93044
9.91883
9.89226
9.92268
9.90848
9.89587
9.86683
9.89758
9.88246
9.86881
9.83699
9.86806
9.85194
9.83708
9.8022
9.83352
9.8163
9.80017
9.7619
9.79333
9.7749
9.75732
9.71525
9.74671
9.72694
9.70778
9.66146
9.69277
9.67154
9.65059
9.59945
9.63048
9.60763
9.5847
9.52813
9.55862
9.53396
9.50879
9.44601
9.47576
9.44909
9.42139
9.35154
9.38017
9.35126
9.32067
9.24271
9.26981
9.2384
9.20454
9.11736
9.14219
9.10798
9.07039
8.97266
8.99433
8.95697
8.91522
8.80553
8.82259
8.78169
8.7354
8.6123
8.62266
8.5778
8.52661
8.38852
8.38933
8.34003
8.28356
8.12874
8.11622
8.06206
8.00018
7.827
7.79608
7.73638
7.66948
7.47658
7.42032
7.35453
7.28359
7.07011
6.97778
6.90601
6.83332
6.59932
6.45653
6.3793
6.30887
6.0557
5.84563
5.76288
5.70065
5.43222
5.13561
5.04745
5.006
4.72341
4.32186
4.22853
4.21852
3.93185
3.40696
3.3074
3.33981
3.06227
2.40462
2.29555
2.3838
2.12734
1.34091
1.21475
1.37675
1.16516
0.25506
0.0960029
0.353243
0.219687
-0.798638
-1.01894
-0.638094
-0.657097
-1.76445
-2.09521
-1.51071
-1.36266
-2.57885
-3.06325
-2.15842
-1.75593
-3.17023
-3.79628
-2.53872
-1.71275
-3.50642
-4.20624
-2.63265
-1.13439
-3.61759
-4.26225
-2.46051
0.609792
-3.60328
-3.93767
-1.80353
4.26878
-3.48615
-2.15217
0.827164
8.81051
-3.23712
2.20818
9.14965
13.7032
10.0093
10.0043
10.0032
9.9965
10.0113
10.0046
10.0027
9.99664
10.0129
10.0056
10.0023
9.99453
10.0135
10.0056
10.0012
9.99197
10.0126
10.0041
9.99886
9.98805
10.0098
10.0008
9.99477
9.98271
10.0052
9.99558
9.98882
9.97552
9.99844
9.98817
9.98079
9.9663
9.98942
9.97853
9.97043
9.95464
9.97782
9.96626
9.95752
9.94031
9.96345
9.95119
9.94168
9.92283
9.94591
9.93288
9.92259
9.90197
9.92487
9.91102
9.89976
9.87715
9.89987
9.8851
9.87283
9.84799
9.87046
9.85468
9.84122
9.81383
9.83603
9.81914
9.8044
9.77417
9.79595
9.77785
9.76164
9.72815
9.74944
9.73
9.71218
9.67502
9.69563
9.67471
9.65504
9.61366
9.63347
9.6109
9.58919
9.54303
9.56174
9.53734
9.51329
9.46161
9.47899
9.45254
9.42587
9.36788
9.38349
9.35476
9.32506
9.25979
9.27316
9.24188
9.20877
9.13512
9.14556
9.11133
9.07436
8.99103
8.99773
8.96019
8.91883
8.82441
8.82603
8.78476
8.73851
8.63144
8.62614
8.58067
8.52905
8.40777
8.39282
8.34265
8.28529
8.14796
8.11972
8.06437
8.00112
7.84605
7.79938
7.73833
7.66935
7.49524
7.4233
7.35597
7.28205
7.08818
6.98074
6.9069
6.82989
6.61712
6.45979
6.37971
6.30303
6.0744
5.84939
5.76279
5.69164
5.45288
5.14006
5.04645
4.99413
4.74927
4.32712
4.22556
4.20911
3.96425
3.41367
3.30393
3.32377
3.10554
2.41268
2.29313
2.35493
2.18713
1.3492
1.21046
1.33967
1.23239
0.261527
0.087265
0.308162
0.289012
-0.795744
-1.03314
-0.691571
-0.592779
-1.76626
-2.11489
-1.57304
-1.31862
-2.58188
-3.07985
-2.21698
-1.72646
-3.16807
-3.78777
-2.56253
-1.70226
-3.49961
-4.16086
-2.56751
-1.10703
-3.60338
-4.18715
-2.24554
0.685396
-3.59219
-3.87073
-1.479
4.39073
-3.51581
-2.13599
1.06172
8.96112
-3.54444
2.29194
9.35824
13.8837
10.0074
10.0015
9.99952
9.99097
10.0095
10.0024
9.9998
9.99111
10.0113
10.0037
9.99971
9.98927
10.012
10.0037
9.99847
9.98618
10.011
10.0022
9.99598
9.98194
10.0082
9.99873
9.99173
9.97614
10.0035
9.99348
9.98569
9.96859
9.99671
9.98601
9.97753
9.95887
9.98762
9.97631
9.96706
9.94672
9.97595
9.96397
9.95399
9.93177
9.96149
9.94883
9.93802
9.91372
9.94386
9.93043
9.91877
9.89221
9.92273
9.90847
9.89582
9.86677
9.89764
9.88244
9.86875
9.83693
9.86812
9.85192
9.83703
9.80218
9.83358
9.81627
9.80011
9.76191
9.79338
9.77486
9.75726
9.71527
9.74675
9.7269
9.70772
9.66149
9.69282
9.67149
9.65053
9.59949
9.63052
9.60757
9.58465
9.52819
9.55866
9.53391
9.50874
9.44607
9.47579
9.44903
9.42135
9.3516
9.3802
9.35121
9.32064
9.24279
9.26983
9.23835
9.20453
9.11745
9.14221
9.10794
9.07039
8.97278
8.99437
8.95693
8.91524
8.80568
8.82263
8.78166
8.73544
8.61251
8.62271
8.57777
8.52667
8.38877
8.38938
8.34002
8.28365
8.12905
8.11629
8.06207
8.00031
7.82738
7.79613
7.7364
7.66964
7.47705
7.42038
7.35457
7.28381
7.07066
6.97787
6.90607
6.83359
6.59993
6.45663
6.37938
6.30923
6.05639
5.84571
5.76298
5.70113
5.43297
5.13568
5.04759
5.00629
4.72434
4.32186
4.22859
4.21871
3.93296
3.40684
3.30725
3.34038
3.06336
2.40435
2.29527
2.38452
2.12844
1.34042
1.21421
1.37739
1.166
0.254258
0.0951023
0.353667
0.220489
-0.799782
-1.02022
-0.638016
-0.656354
-1.76603
-2.09673
-1.51088
-1.36158
-2.58082
-3.06514
-2.15913
-1.75502
-3.17311
-3.79885
-2.54045
-1.71252
-3.51069
-4.20973
-2.63607
-1.13405
-3.62734
-4.26888
-2.46478
0.612208
-3.62241
-3.94379
-1.80284
4.28157
-3.54042
-2.13113
0.821878
8.8309
-3.55133
2.42893
9.20239
13.729
10.0074
10.0023
10.0008
9.99579
10.0098
10.0044
10.0041
10.0011
10.0115
10.0058
10.0054
10.0019
10.012
10.006
10.0043
9.99909
10.011
10.0044
10.002
9.99556
10.0082
10.0011
9.99805
9.9905
10.0034
9.9958
9.99228
9.98382
9.9966
9.98841
9.98452
9.97516
9.98746
9.97872
9.97437
9.96407
9.97575
9.96643
9.96173
9.9504
9.96124
9.95129
9.9461
9.93362
9.94356
9.93294
9.92734
9.91362
9.92236
9.911
9.90487
9.88977
9.8972
9.88504
9.87846
9.86185
9.8676
9.85456
9.84737
9.82891
9.83299
9.81899
9.8112
9.79061
9.79271
9.77764
9.76911
9.74601
9.74599
9.72977
9.72049
9.69451
9.69196
9.67446
9.66425
9.63486
9.62958
9.61068
9.59949
9.56618
9.55763
9.53718
9.52482
9.4869
9.4747
9.45255
9.43893
9.39569
9.37908
9.35506
9.33992
9.29039
9.26876
9.2427
9.22584
9.16904
9.14125
9.11297
9.09407
9.02875
8.9935
8.96292
8.94174
8.86657
8.82184
8.78876
8.7653
8.67831
8.622
8.58614
8.56075
8.45995
8.38884
8.34987
8.32284
8.20618
8.11621
8.07386
8.04584
7.91127
7.79608
7.75078
7.72303
7.56835
7.42053
7.37194
7.34666
7.16992
6.97732
6.9265
6.90746
6.7072
6.45573
6.40326
6.39606
6.17198
5.8443
5.791
5.80373
5.55796
5.13334
5.08019
5.12435
4.86019
4.31823
4.26449
4.35169
4.07847
3.40123
3.3446
3.48783
3.22003
2.39698
2.33058
2.54176
2.30407
1.33215
1.24741
1.53825
1.36434
0.249373
0.129653
0.516454
0.435612
-0.800415
-0.98236
-0.481208
-0.417464
-1.75538
-2.04873
-1.39254
-1.07453
-2.55976
-3.01196
-2.13649
-1.4184
-3.1517
-3.77533
-2.63081
-1.41092
-3.48888
-4.22311
-2.88688
-0.924768
-3.60596
-4.2958
-2.99882
0.743948
-3.59244
-3.9336
-2.39888
4.33198
-3.53447
-2.02487
0.906939
8.95142
-2.75994
2.61392
9.28912
13.7546
9.99465
10.0004
10.0001
9.99717
9.99297
9.98757
9.9804
9.97143
9.95991
9.9459
9.92864
9.90816
9.88368
9.85514
9.82157
9.7827
9.73743
9.68529
9.62496
9.55564
9.47568
9.38383
9.27796
9.15616
9.01562
8.85356
8.66608
8.44921
8.19792
7.90691
7.56981
7.17975
6.72896
6.21072
5.62021
4.95364
4.2096
3.39791
2.53948
1.66665
0.818878
0.0780248
-0.41429
-0.532002
-0.30568
0.506063
3.60865
10.8231
17.691
11.3893
9.9911
9.9922
9.98951
9.98629
9.98142
9.97542
9.96745
9.95759
9.94513
9.93005
9.91168
9.88993
9.86412
9.83401
9.7988
9.75809
9.71092
9.65664
9.59405
9.52219
9.4395
9.34457
9.23537
9.10986
8.96526
8.79868
8.60642
8.3844
8.12759
7.83052
7.48674
7.08929
6.63021
6.10207
5.50009
4.81914
4.06048
3.23615
2.36837
1.48646
0.639032
-0.0932335
-0.576687
-0.665368
-0.329581
0.658349
3.90055
11.5375
19.2515
12.6657
9.99644
9.99805
9.99682
9.99362
9.98919
9.98371
9.97616
9.96688
9.95489
9.94044
9.92261
9.90153
9.8763
9.84684
9.81221
9.77213
9.72553
9.67185
9.60982
9.53853
9.45636
9.36193
9.25314
9.12794
8.98351
8.81694
8.62452
8.4022
8.14496
7.84739
7.50315
7.10549
6.64706
6.12068
5.51971
4.84009
4.08355
3.26054
2.38894
1.49979
0.645881
-0.0954085
-0.589309
-0.685053
-0.335392
0.701769
4.00139
11.7703
19.7284
13.1835
9.99104
9.99219
9.98955
9.98628
9.98142
9.97541
9.96745
9.95758
9.94511
9.93002
9.91164
9.88991
9.8641
9.83399
9.79879
9.7581
9.71093
9.65666
9.59407
9.52222
9.43953
9.34462
9.23543
9.10993
8.96534
8.79878
8.60655
8.38455
8.12776
7.83074
7.48699
7.08956
6.63049
6.10234
5.50029
4.8193
4.06067
3.23611
2.3677
1.48588
0.638395
-0.0936915
-0.577032
-0.666198
-0.331537
0.656097
3.89887
11.5089
19.2574
12.5779
9.99482
10.0005
10.0001
9.99717
9.99296
9.98757
9.98041
9.97143
9.95991
9.94588
9.92862
9.90815
9.8837
9.85518
9.8216
9.78272
9.73744
9.6853
9.62497
9.55564
9.47568
9.38384
9.27796
9.15617
9.01563
8.85356
8.66607
8.44919
8.19789
7.90688
7.56977
7.17971
6.7289
6.21066
5.62013
4.95357
4.20957
3.39786
2.53922
1.66618
0.818099
0.0770379
-0.415262
-0.53284
-0.306417
0.505703
3.60975
10.8216
17.7116
11.3566
-19.9382
-9.89879
1.56943
5.82538
-20.0804
-16.5169
-9.3837
0.76528
-20.393
-18.8541
-15.3855
-5.85426
-20.3084
-20.4159
-18.4489
-11.9698
-20.008
-20.8526
-18.8644
-14.8054
-19.3624
-20.2977
-18.2807
-15.6436
-18.3454
-19.0585
-17.3986
-15.7694
-16.977
-17.4576
-16.1661
-15.3875
-15.3905
-15.6801
-14.6796
-14.5019
-13.695
-13.8904
-13.1042
-13.2874
-11.9997
-12.1555
-11.556
-11.9512
-10.3867
-10.5328
-10.0962
-10.5807
-8.90917
-9.04945
-8.75283
-9.26996
-7.59476
-7.73183
-7.53952
-8.05592
-6.44541
-6.57874
-6.4653
-6.95861
-5.45747
-5.58498
-5.52922
-5.98543
-4.61407
-4.73423
-4.71814
-5.13229
-3.89573
-4.0082
-4.01754
-4.39126
-3.28746
-3.39173
-3.41618
-3.74898
-2.77277
-2.86997
-2.90218
-3.19392
-2.33667
-2.42691
-2.46256
-2.71641
-1.96742
-2.05035
-2.08675
-2.30681
-1.65437
-1.73015
-1.76545
-1.95569
-1.38841
-1.45758
-1.49073
-1.655
-1.16192
-1.22502
-1.25537
-1.39716
-0.968711
-1.02631
-1.05371
-1.17632
-0.803597
-0.856182
-0.880557
-0.986704
-0.662338
-0.710436
-0.732012
-0.824173
-0.541362
-0.585397
-0.604316
-0.684489
-0.437766
-0.478181
-0.494811
-0.564784
-0.34909
-0.386219
-0.400762
-0.461968
-0.273329
-0.307537
-0.320359
-0.374135
-0.208768
-0.240307
-0.251556
-0.298928
-0.153999
-0.183166
-0.193149
-0.235075
-0.107772
-0.134782
-0.14359
-0.180841
-0.0690411
-0.0941895
-0.102028
-0.135437
-0.0369352
-0.0604149
-0.0671634
-0.0972555
-0.0106855
-0.0326423
-0.0386154
-0.065826
0.0103471
-0.0102113
-0.0153908
-0.040047
0.0267657
0.00741405
0.0027837
-0.0196041
0.0389993
0.0207175
0.016782
-0.0035727
0.0474889
0.0302605
0.0267707
0.0082356
0.0525063
0.0363043
0.0334375
0.0165702
0.0544634
0.0393005
0.0368818
0.0216437
0.0534507
0.0393122
0.037676
0.0240333
0.049904
0.036853
0.0359513
0.0244947
0.0436538
0.0316987
0.0320722
0.0225986
0.03555
0.0248624
0.0259482
0.0207622
0.0248089
0.0153256
0.0183072
0.0104686
0.0138069
0.00518094
0.00581909
-0.00545846
-21.4244
-9.3347
1.93884
5.70471
-20.3827
-16.8689
-9.71227
0.739862
-20.4083
-18.9349
-15.3385
-5.88621
-20.2899
-20.3182
-17.7437
-11.9554
-19.9947
-20.7149
-18.2445
-14.8501
-19.3749
-20.2964
-17.934
-15.7933
-18.3621
-19.1678
-17.2497
-15.9966
-16.9824
-17.5762
-16.1993
-15.6086
-15.3835
-15.7822
-14.8207
-14.6551
-13.6858
-13.9771
-13.3069
-13.4061
-11.9951
-12.2325
-11.7813
-12.053
-10.3889
-10.6026
-10.3174
-10.6958
-8.91697
-9.11397
-8.95733
-9.39418
-7.60659
-7.79317
-7.72532
-8.17912
-6.46034
-6.63691
-6.63221
-7.07898
-5.47249
-5.63743
-5.6777
-6.10243
-4.62735
-4.78009
-4.8509
-5.24321
-3.90747
-4.04805
-4.13611
-4.49443
-3.29724
-3.4252
-3.52082
-3.84553
-2.78096
-2.89627
-2.99331
-3.28541
-2.34353
-2.44792
-2.54178
-2.80344
-1.97295
-2.06743
-2.15569
-2.38986
-1.65861
-1.74409
-1.82547
-2.03471
-1.39152
-1.46894
-1.54306
-1.72986
-1.16411
-1.23432
-1.30126
-1.468
-0.970165
-1.03395
-1.09411
-1.24308
-0.80448
-0.862583
-0.916442
-1.04972
-0.662774
-0.715849
-0.764046
-0.883544
-0.54148
-0.590106
-0.6332
-0.740556
-0.437642
-0.482332
-0.520954
-0.617603
-0.348811
-0.390011
-0.424643
-0.511809
-0.272925
-0.311018
-0.342206
-0.421077
-0.20828
-0.243607
-0.271727
-0.343292
-0.153398
-0.186285
-0.211774
-0.276909
-0.107105
-0.137888
-0.160941
-0.220316
-0.0683253
-0.0972976
-0.118185
-0.172349
-0.0362601
-0.0635852
-0.0824301
-0.132004
-0.0100677
-0.0358062
-0.0529649
-0.0984822
0.0108433
-0.0134477
-0.0290112
-0.0709308
0.0271644
0.00423681
-0.0100381
-0.0487138
0.039231
0.0175246
0.00455914
-0.0311986
0.0476378
0.027134
0.0152026
-0.0178284
0.0525168
0.0331026
0.0223048
-0.00813569
0.0544347
0.0361734
0.0263109
-0.00168865
0.0533202
0.0361042
0.0274795
0.00190019
0.0496964
0.0337082
0.0262721
0.00336322
0.0433259
0.0284729
0.0226594
0.00272251
0.0348041
0.0214947
0.0171773
0.00140276
0.0244966
0.0129151
0.00998424
-0.00374946
0.0147265
0.0058738
0.00287369
-0.012468
-21.7886
-8.9643
2.20504
5.67931
-20.4721
-16.9509
-9.63777
0.967079
-20.4122
-18.9178
-15.1157
-5.77142
-20.2509
-20.2188
-17.4126
-11.8449
-19.9507
-20.6235
-18.0196
-14.8091
-19.3514
-20.2679
-17.8559
-15.8175
-18.359
-19.1965
-17.2686
-16.047
-16.9841
-17.6106
-16.266
-15.6534
-15.3779
-15.8121
-14.9057
-14.6726
-13.6773
-13.9995
-13.3928
-13.4001
-11.9877
-12.2497
-11.8589
-12.0368
-10.3845
-10.6143
-10.3844
-10.679
-8.91522
-9.12316
-9.01139
-9.3764
-7.60681
-7.80021
-7.77095
-8.1619
-6.46179
-6.64214
-6.67146
-7.06361
-5.47401
-5.64065
-5.70893
-6.0887
-4.62825
-4.78098
-4.87303
-5.23239
-3.90795
-4.04697
-4.1512
-4.48541
-3.29683
-3.42264
-3.53086
-3.83747
-2.77929
-2.89252
-2.99912
-3.27814
-2.3411
-2.44308
-2.54437
-2.79616
-1.96996
-2.06175
-2.15576
-2.38156
-1.65517
-1.7377
-1.8236
-2.0252
-1.38774
-1.46203
-1.53969
-1.71916
-1.16011
-1.22709
-1.29677
-1.45618
-0.966002
-1.0265
-1.08878
-1.23028
-0.800226
-0.855037
-0.910519
-1.03604
-0.658489
-0.708306
-0.757706
-0.86913
-0.537208
-0.582632
-0.626602
-0.725498
-0.433418
-0.474969
-0.514245
-0.602361
-0.344663
-0.382796
-0.417932
-0.496841
-0.26887
-0.303964
-0.335524
-0.406448
-0.204341
-0.236727
-0.265093
-0.328976
-0.149548
-0.179516
-0.205199
-0.262942
-0.103271
-0.131251
-0.154448
-0.206709
-0.0644383
-0.0908012
-0.111816
-0.159263
-0.032347
-0.0572229
-0.07619
-0.119423
-0.00619135
-0.0296031
-0.0468698
-0.086459
0.0146507
-0.00740594
-0.0230412
-0.0593876
0.0308772
0.010105
-0.00421992
-0.0376878
0.0428528
0.0232319
0.0102512
-0.0205892
0.0511612
0.032652
0.0207223
-0.00771194
0.0559565
0.0384563
0.027703
0.00158763
0.0577843
0.0413358
0.031517
0.00753704
0.0565966
0.0411133
0.0325494
0.0107751
0.0529039
0.0385475
0.0310728
0.011518
0.046417
0.0331305
0.0272391
0.0104128
0.0377306
0.0260372
0.0215818
0.00730477
0.0271127
0.0170435
0.0147993
0.0033053
0.0177777
0.010173
0.00715633
-0.00384495
-21.4258
-9.33657
1.93419
5.70311
-20.3819
-16.8658
-9.71343
0.739235
-20.4069
-18.9345
-15.3411
-5.88818
-20.2888
-20.3196
-17.7429
-11.955
-19.9924
-20.7222
-18.2399
-14.8485
-19.3732
-20.3023
-17.9306
-15.7923
-18.3619
-19.1687
-17.2495
-15.9964
-16.9828
-17.577
-16.1992
-15.6085
-15.3839
-15.7828
-14.8205
-14.655
-13.6861
-13.9775
-13.3069
-13.4061
-11.9953
-12.2328
-11.7814
-12.0532
-10.3891
-10.6028
-10.3174
-10.696
-8.9171
-9.11413
-8.95735
-9.39433
-7.60672
-7.79332
-7.72528
-8.17915
-6.46048
-6.63705
-6.6321
-7.0789
-5.47257
-5.63756
-5.67757
-6.1023
-4.62738
-4.78019
-4.85076
-5.24302
-3.90745
-4.04812
-4.13598
-4.49422
-3.29714
-3.42524
-3.5207
-3.84531
-2.78085
-2.89624
-2.99321
-3.28519
-2.3434
-2.44783
-2.54169
-2.80323
-1.97282
-2.06733
-2.15559
-2.38965
-1.65849
-1.74398
-1.8254
-2.03455
-1.39141
-1.46884
-1.54301
-1.7297
-1.16403
-1.23423
-1.30122
-1.46787
-0.970099
-1.03389
-1.09409
-1.243
-0.804433
-0.862543
-0.91644
-1.04966
-0.662741
-0.715834
-0.764068
-0.883495
-0.541458
-0.59011
-0.633246
-0.740558
-0.437624
-0.48235
-0.521023
-0.617694
-0.348797
-0.390036
-0.424711
-0.5119
-0.27291
-0.311047
-0.342272
-0.421147
-0.208267
-0.243635
-0.27179
-0.343359
-0.153382
-0.186309
-0.211838
-0.276974
-0.107085
-0.137908
-0.161003
-0.220401
-0.0683015
-0.0973126
-0.118245
-0.17245
-0.0362361
-0.063596
-0.0824801
-0.132099
-0.0100435
-0.0358115
-0.053007
-0.0985603
0.0108658
-0.0134504
-0.0290436
-0.0710024
0.0271842
0.00423656
-0.0100655
-0.0487673
0.0392459
0.0175229
0.00453649
-0.0312605
0.0476446
0.0271292
0.0151792
-0.0178779
0.0525142
0.0330895
0.0222785
-0.00820617
0.0544322
0.0361593
0.0262677
-0.00176142
0.0533061
0.0360693
0.0274308
0.00178263
0.0498219
0.0337965
0.0261456
0.00303277
0.0434377
0.0285003
0.0225802
0.00240147
0.0354244
0.0221882
0.0170379
2.79579e-06
0.0240057
0.012151
0.0106466
-0.00301648
0.0134755
0.00450039
0.00329242
-0.00919504
-19.9375
-9.89736
1.5671
5.82416
-20.0795
-16.5137
-9.38252
0.763688
-20.392
-18.852
-15.3849
-5.85631
-20.3075
-20.4158
-18.4498
-11.9708
-20.0072
-20.8544
-18.8654
-14.8061
-19.3623
-20.2995
-18.2816
-15.6444
-18.346
-19.0602
-17.3999
-15.7705
-16.9778
-17.4592
-16.1673
-15.3885
-15.3912
-15.6811
-14.6804
-14.5028
-13.6955
-13.891
-13.1046
-13.288
-12
-12.1557
-11.5562
-11.9516
-10.3869
-10.533
-10.0962
-10.5814
-8.90929
-9.0496
-8.75272
-9.27049
-7.59497
-7.73203
-7.53934
-8.05619
-6.44565
-6.57895
-6.46507
-6.9587
-5.45758
-5.58513
-5.5291
-5.98545
-4.6141
-4.73433
-4.71805
-5.13221
-3.89569
-4.00825
-4.01748
-4.39114
-3.28731
-3.39166
-3.4161
-3.74882
-2.77258
-2.86979
-2.90208
-3.19376
-2.33646
-2.42671
-2.46248
-2.71625
-1.96722
-2.05017
-2.0867