/*--------------------------------*- C++ -*----------------------------------*\
| =========                 |                                                 |
| \\      /  F ield         | OpenFOAM: The Open Source CFD Toolbox           |
|  \\    /   O peration     | Version:                                        |
|   \\  /    A nd           | Website:  www.openfoam.com                      |
|    \\/     M anipulation  |                                                 |
\*---------------------------------------------------------------------------*/
FoamFile
{
    version     2.0;
    format      ascii;
    class       surfaceScalarField;
    location    "1.5";
    object      phi;
}
// * * * * * * * * * * * * * * * * * * * * * * * * * * * * * * * * * * * * * //

dimensions      [0 3 -1 0 0 0 0];
oriented        oriented;


internalField   nonuniform List<scalar> 
9975
(
0.000116748
-1.15611e-06
-1.15586e-06
0.000117529
-3.90847e-07
-3.90061e-07
0.00011786
-1.67045e-07
-1.64376e-07
0.000118092
-1.15795e-07
-1.16034e-07
0.000118103
-4.59107e-09
-6.17022e-09
0.000118002
5.02949e-08
5.05144e-08
0.000117865
6.87406e-08
6.84334e-08
0.000117711
7.68759e-08
7.71008e-08
0.000117544
8.3732e-08
8.34646e-08
0.000117367
8.82109e-08
8.84687e-08
0.000117184
9.15314e-08
9.12387e-08
0.000116998
9.30102e-08
9.33056e-08
0.000116809
9.46797e-08
9.43554e-08
0.000116619
9.51204e-08
9.54505e-08
0.000116427
9.61152e-08
9.57589e-08
0.000116235
9.56909e-08
9.60602e-08
0.000116043
9.59479e-08
9.54742e-08
0.000115851
9.59854e-08
9.64511e-08
0.000115659
9.62625e-08
9.57791e-08
0.000115467
9.56241e-08
9.60931e-08
0.000115276
9.56665e-08
9.51849e-08
0.000115086
9.47923e-08
9.52586e-08
0.000114898
9.45262e-08
9.40554e-08
0.00011471
9.35294e-08
9.39868e-08
0.000114525
9.30037e-08
9.25771e-08
0.00011434
9.20004e-08
9.24701e-08
0.000114158
9.13437e-08
9.09019e-08
0.000113977
9.04307e-08
9.07934e-08
0.000113798
8.94267e-08
8.90616e-08
0.000113621
8.86785e-08
8.89406e-08
0.000113446
8.73612e-08
8.70665e-08
0.000113272
8.69301e-08
8.70086e-08
0.000113102
8.5228e-08
8.49774e-08
0.000112932
8.53463e-08
8.50363e-08
0.000112766
8.31906e-08
8.28096e-08
0.000112598
8.42729e-08
8.30731e-08
0.000112436
8.1849e-08
8.05462e-08
0.00011227
8.46099e-08
8.11629e-08
0.000112109
8.28951e-08
7.82098e-08
0.00011194
9.05185e-08
7.90183e-08
0.000111771
9.28209e-08
7.55782e-08
0.000111582
1.1204e-07
7.71971e-08
0.000111379
1.28989e-07
7.37813e-08
0.000111124
1.80507e-07
7.50903e-08
0.000110817
2.2881e-07
7.75296e-08
0.000110387
3.47638e-07
8.25537e-08
0.000109865
4.26078e-07
9.55001e-08
0.00010937
2.60451e-07
2.3449e-07
0.000109419
-4.36658e-07
3.88471e-07
-4.73136e-06
1.08824e-06
0.000113062
0.000119725
-1.5053e-07
-1.40011e-06
0.000119831
2.04542e-09
-4.99598e-07
0.000119905
7.01839e-08
-3.11357e-07
0.000119882
9.65992e-08
-1.89342e-07
0.000119854
1.13066e-07
-8.89554e-08
0.000119807
1.3842e-07
-4.13872e-08
0.000119751
1.50946e-07
-2.60291e-08
0.000119693
1.55369e-07
-2.03152e-08
0.000119634
1.58124e-07
-1.63022e-08
0.000119577
1.59957e-07
-1.46018e-08
0.000119522
1.60001e-07
-1.33167e-08
0.000119469
1.58325e-07
-1.23208e-08
0.000119418
1.56086e-07
-1.05517e-08
0.000119369
1.52984e-07
-8.91264e-09
0.000119322
1.4984e-07
-6.54635e-09
0.000119276
1.46181e-07
-4.44758e-09
0.00011923
1.43362e-07
-1.61788e-09
0.000119186
1.38713e-07
1.13658e-09
0.000119144
1.34175e-07
4.92228e-09
0.000119102
1.29536e-07
7.80545e-09
0.000119061
1.25282e-07
1.14163e-08
0.000119021
1.21107e-07
1.39367e-08
0.000118981
1.17356e-07
1.71677e-08
0.000118941
1.13677e-07
1.92442e-08
0.000118902
1.10343e-07
2.19949e-08
0.000118863
1.07068e-07
2.36081e-08
0.000118824
1.04055e-07
2.65273e-08
0.000118785
1.01267e-07
2.77393e-08
0.000118746
9.87456e-08
2.98675e-08
0.000118708
9.63584e-08
3.07174e-08
0.000118669
9.40959e-08
3.25082e-08
0.00011863
9.19608e-08
3.31873e-08
0.000118591
8.98691e-08
3.48338e-08
0.000118553
8.80892e-08
3.53651e-08
0.000118513
8.62742e-08
3.69118e-08
0.000118475
8.51915e-08
3.7324e-08
0.000118433
8.42995e-08
3.87745e-08
0.000118395
8.41515e-08
3.91988e-08
0.00011835
8.66264e-08
4.03508e-08
0.000118308
9.26084e-08
4.02998e-08
0.000118255
1.04523e-07
4.11314e-08
0.000118202
1.23523e-07
4.1574e-08
0.000118119
1.70353e-07
4.17659e-08
0.000118023
2.34758e-07
4.16144e-08
0.000117828
3.83466e-07
4.0879e-08
0.000117544
5.93436e-07
3.74276e-08
0.000116929
9.66892e-07
7.44392e-08
0.000115779
1.38284e-06
2.75762e-08
0.000113364
1.72086e-06
2.57214e-07
2.38895e-06
3.94314e-07
0.00010585
0.000118603
1.50586e-07
-1.1763e-06
0.000118764
-1.98775e-09
-1.57104e-07
0.000118955
-7.0396e-08
-5.09341e-08
0.000119097
-9.65144e-08
5.15572e-08
0.000119175
-1.13193e-07
1.47584e-07
0.000119245
-1.38266e-07
2.06954e-07
0.000119307
-1.51095e-07
2.40534e-07
0.000119358
-1.55188e-07
2.58997e-07
0.000119401
-1.58295e-07
2.73768e-07
0.000119434
-1.59743e-07
2.87064e-07
0.000119459
-1.60202e-07
2.94418e-07
0.000119479
-1.58077e-07
2.96991e-07
0.000119493
-1.56322e-07
2.97992e-07
0.000119503
-1.52697e-07
2.95811e-07
0.00011951
-1.50119e-07
2.9346e-07
0.000119513
-1.4585e-07
2.88629e-07
0.000119516
-1.43694e-07
2.84342e-07
0.000119515
-1.38379e-07
2.77439e-07
0.000119513
-1.34506e-07
2.70753e-07
0.000119509
-1.29145e-07
2.62831e-07
0.000119504
-1.25683e-07
2.56183e-07
0.000119497
-1.20643e-07
2.48503e-07
0.00011949
-1.17837e-07
2.42402e-07
0.000119482
-1.13124e-07
2.35157e-07
0.000119473
-1.10908e-07
2.2954e-07
0.000119464
-1.06401e-07
2.22654e-07
0.000119455
-1.04715e-07
2.17751e-07
0.000119445
-1.00483e-07
2.11545e-07
0.000119436
-9.94709e-08
2.07566e-07
0.000119426
-9.54175e-08
2.01925e-07
0.000119416
-9.48312e-08
1.98485e-07
0.000119406
-9.0717e-08
1.92981e-07
0.000119396
-9.03608e-08
1.89913e-07
0.000119386
-8.60842e-08
1.84392e-07
0.000119376
-8.57133e-08
1.81823e-07
0.000119366
-8.09689e-08
1.76168e-07
0.000119356
-7.99435e-08
1.7403e-07
0.000119345
-7.32686e-08
1.69225e-07
0.000119334
-6.92868e-08
1.66657e-07
0.000119325
-5.91957e-08
1.61137e-07
0.000119316
-4.65847e-08
1.59472e-07
0.000119305
-2.01156e-08
1.54656e-07
0.000119296
2.66196e-08
1.5331e-07
0.000119265
1.19077e-07
1.46105e-07
0.000119227
2.78414e-07
1.42934e-07
0.000119078
6.10768e-07
1.31543e-07
0.000118724
1.16579e-06
1.55906e-07
0.00011757
2.46634e-06
7.04581e-08
0.000114395
4.46678e-06
4.29099e-07
8.14182e-06
-2.15204e-09
0.000108644
0.000119725
1.15624e-06
-1.40016e-06
0.000119831
3.90703e-07
-4.99473e-07
0.000119905
1.66903e-07
-3.11386e-07
0.000119882
1.15817e-07
-1.89281e-07
0.000119854
4.57016e-09
-8.90515e-08
0.000119807
-5.02555e-08
-4.12795e-08
0.000119751
-6.87808e-08
-2.61296e-08
0.000119693
-7.68226e-08
-2.01953e-08
0.000119634
-8.378e-08
-1.64153e-08
0.000119577
-8.81396e-08
-1.44696e-08
0.000119522
-9.15926e-08
-1.34451e-08
0.000119469
-9.292e-08
-1.21762e-08
0.000119418
-9.47604e-08
-1.06931e-08
0.000119369
-9.5007e-08
-8.75547e-09
0.000119322
-9.62205e-08
-6.69896e-09
0.000119276
-9.55438e-08
-4.27898e-09
0.00011923
-9.61285e-08
-1.77642e-09
0.000119186
-9.57686e-08
1.29968e-09
0.000119144
-9.64838e-08
4.75217e-09
0.000119102
-9.5348e-08
7.98751e-09
0.000119061
-9.59599e-08
1.12323e-08
0.000119021
-9.44342e-08
1.41321e-08
0.000118981
-9.49175e-08
1.69714e-08
0.000118941
-9.30625e-08
1.94511e-08
0.000118902
-9.35332e-08
2.17931e-08
0.000118863
-9.13962e-08
2.3896e-08
0.000118824
-9.20167e-08
2.62592e-08
0.000118785
-8.96036e-08
2.80072e-08
0.000118746
-9.03055e-08
2.96362e-08
0.000118708
-8.75629e-08
3.09501e-08
0.000118669
-8.84525e-08
3.22518e-08
0.00011863
-8.5375e-08
3.34411e-08
0.000118592
-8.64562e-08
3.45275e-08
0.000118553
-8.29666e-08
3.56537e-08
0.000118515
-8.41569e-08
3.65031e-08
0.000118476
-8.00071e-08
3.76401e-08
0.000118439
-8.10573e-08
3.82257e-08
0.000118402
-7.52974e-08
3.95668e-08
0.000118368
-7.52072e-08
3.97849e-08
0.000118334
-6.63039e-08
4.1283e-08
0.000118306
-6.10993e-08
4.17093e-08
0.000118282
-4.03401e-08
4.4974e-08
0.000118283
-2.00358e-08
4.48729e-08
0.000118302
4.92141e-08
5.17895e-08
0.000118376
1.55349e-07
4.90817e-08
0.000118534
4.03385e-07
4.84874e-08
0.000118704
9.38755e-07
5.74459e-08
0.000119038
2.07553e-06
5.69958e-08
0.000117663
5.67748e-06
1.64231e-07
1.21451e-05
9.34445e-07
0.000112725
0.000116749
-1.15596e-06
0.000117529
-3.89979e-07
0.00011786
-1.64321e-07
0.000118092
-1.16046e-07
0.000118103
-6.15758e-09
0.000118002
5.05228e-08
0.000117865
6.84466e-08
0.000117711
7.71142e-08
0.000117544
8.34711e-08
0.000117367
8.84838e-08
0.000117184
9.12428e-08
0.000116998
9.33223e-08
0.000116809
9.43571e-08
0.000116619
9.54696e-08
0.000116427
9.57578e-08
0.000116235
9.60801e-08
0.000116043
9.54587e-08
0.000115851
9.64858e-08
0.000115659
9.57697e-08
0.000115467
9.61261e-08
0.000115276
9.51708e-08
0.000115087
9.52949e-08
0.000114898
9.40339e-08
0.00011471
9.40277e-08
0.000114524
9.25327e-08
0.000114341
9.24859e-08
0.000114158
9.0885e-08
0.000113977
9.08537e-08
0.000113798
8.90156e-08
0.000113621
8.90101e-08
0.000113446
8.70026e-08
0.000113273
8.70791e-08
0.000113102
8.49157e-08
0.000112934
8.50721e-08
0.000112767
8.27843e-08
0.000112604
8.30191e-08
0.000112442
8.0612e-08
0.000112286
8.1117e-08
0.000112132
7.82439e-08
0.000111987
7.87768e-08
0.00011185
7.58992e-08
0.000111731
7.89118e-08
0.000111629
8.25134e-08
0.000111598
7.95425e-08
0.000111661
9.30498e-08
0.000112004
5.96659e-08
0.000112852
9.07255e-08
0.00011487
5.82594e-08
0.000120467
8.04282e-08
1.01686e-06
0.000131595
0.000119725
-1.40034e-06
-1.50244e-07
0.000119832
-5.00735e-07
3.66896e-09
0.000119901
-3.14564e-07
8.11319e-08
0.000119884
-1.87878e-07
8.95379e-08
0.000119854
-8.82986e-08
1.11916e-07
0.000119807
-4.1141e-08
1.38514e-07
0.000119751
-2.62532e-08
1.50824e-07
0.000119693
-1.99915e-08
1.55326e-07
0.000119634
-1.66386e-08
1.58148e-07
0.000119577
-1.42226e-08
1.59914e-07
0.000119522
-1.37227e-08
1.60037e-07
0.000119469
-1.1878e-08
1.58278e-07
0.000119418
-1.10323e-08
1.56125e-07
0.000119369
-8.39276e-09
1.52933e-07
0.000119322
-7.11379e-09
1.49884e-07
0.000119276
-3.84183e-09
1.46118e-07
0.00011923
-2.29788e-09
1.43403e-07
0.000119186
1.8497e-09
1.38655e-07
0.000119144
4.14685e-09
1.34234e-07
0.000119102
8.63632e-09
1.29452e-07
0.000119061
1.05125e-08
1.25378e-07
0.00011902
1.49086e-08
1.20979e-07
0.000118981
1.61082e-08
1.17507e-07
0.000118941
2.03818e-08
1.13481e-07
0.000118902
2.07326e-08
1.10557e-07
0.000118863
2.52459e-08
1.06745e-07
0.000118824
2.47834e-08
1.04397e-07
0.000118785
2.9554e-08
1.00859e-07
0.000118747
2.79432e-08
9.9159e-08
0.000118707
3.2806e-08
9.58204e-08
0.000118669
3.03139e-08
9.45675e-08
0.000118629
3.56924e-08
9.12033e-08
0.000118592
3.23327e-08
9.03e-08
0.000118551
3.85413e-08
8.68503e-08
0.000118514
3.4214e-08
8.6291e-08
0.000118472
4.17233e-08
8.27432e-08
0.000118434
3.65193e-08
8.24637e-08
0.00011839
4.62211e-08
7.88069e-08
0.000118348
4.09144e-08
7.89488e-08
0.000118297
5.53278e-08
7.52592e-08
0.000118244
5.35651e-08
7.52958e-08
0.00011817
7.88837e-08
7.18258e-08
0.000118079
9.24916e-08
7.21372e-08
0.000117946
1.4097e-07
6.71447e-08
0.000117751
2.03762e-07
6.91798e-08
0.000117459
3.06377e-07
6.80695e-08
0.000117107
3.69329e-07
7.80777e-08
0.000116809
4.30335e-07
1.01648e-07
0.000118201
-1.19642e-06
1.9342e-07
-2.64658e-06
2.4303e-07
0.000121693
0.000121924
-3.12869e-07
-3.12945e-07
0.000121432
-2.53077e-07
-2.55094e-07
0.000120999
-6.98615e-08
-1.23284e-07
0.00012073
-7.49605e-08
-3.324e-08
0.000120648
-4.7368e-08
-4.78549e-08
0.000120633
-3.40399e-08
-3.41077e-08
0.000120654
-3.62399e-08
-3.62729e-08
0.000120698
-4.22474e-08
-4.2337e-08
0.00012076
-4.77562e-08
-4.76703e-08
0.000120837
-5.26254e-08
-5.27377e-08
0.000120923
-5.6687e-08
-5.6572e-08
0.000121017
-5.88457e-08
-5.89836e-08
0.000121116
-6.03538e-08
-6.02073e-08
0.000121219
-6.02161e-08
-6.03865e-08
0.000121325
-6.00008e-08
-5.98165e-08
0.000121434
-5.82967e-08
-5.85068e-08
0.000121543
-5.69326e-08
-5.67032e-08
0.000121655
-5.39374e-08
-5.41836e-08
0.000121766
-5.1433e-08
-5.11597e-08
0.000121878
-4.77475e-08
-4.80431e-08
0.000121991
-4.52565e-08
-4.49326e-08
0.000122103
-4.15099e-08
-4.18596e-08
0.000122214
-3.93323e-08
-3.89525e-08
0.000122326
-3.56275e-08
-3.60361e-08
0.000122436
-3.38641e-08
-3.34256e-08
0.000122545
-3.01552e-08
-3.06306e-08
0.000122654
-2.87811e-08
-2.82719e-08
0.000122762
-2.51691e-08
-2.57298e-08
0.000122868
-2.46152e-08
-2.39438e-08
0.000122974
-2.09289e-08
-2.1728e-08
0.000123079
-2.10046e-08
-2.03177e-08
0.000123183
-1.70725e-08
-1.80541e-08
0.000123284
-1.74733e-08
-1.6888e-08
0.000123386
-1.31543e-08
-1.45838e-08
0.000123484
-1.37572e-08
-1.3664e-08
0.000123583
-8.64731e-09
-1.13081e-08
0.000123678
-8.91359e-09
-1.06649e-08
0.000123774
-2.16103e-09
-8.16987e-09
0.000123863
-7.30171e-11
-7.8543e-09
0.000123953
1.09737e-08
-5.33144e-09
0.000124032
2.09457e-08
-5.24327e-09
0.000124108
4.77323e-08
-2.84403e-09
0.000124162
8.34797e-08
-3.45123e-09
0.000124188
1.56044e-07
6.1411e-10
0.000124145
2.91524e-07
-3.69936e-09
0.000123967
5.17758e-07
3.51158e-09
0.000123577
8.32275e-07
1.09964e-09
0.000122714
1.30961e-06
1.15558e-08
0.000120027
1.66575e-06
8.23702e-08
1.64744e-06
1.92861e-07
0.000115934
0.000121228
3.12929e-07
-2.1596e-07
0.000120648
2.53072e-07
-8.3593e-08
0.00012044
6.98043e-08
1.73564e-08
0.000120332
7.49394e-08
9.33641e-09
0.000120356
4.72879e-08
2.93863e-08
0.000120452
3.40911e-08
4.28696e-08
0.000120571
3.61424e-08
4.90563e-08
0.000120699
4.23239e-08
4.61438e-08
0.000120832
4.7637e-08
4.49677e-08
0.00012097
5.2739e-08
4.40132e-08
0.000121109
5.65377e-08
4.26638e-08
0.000121247
5.90013e-08
4.1157e-08
0.000121384
6.0163e-08
4.0092e-08
0.00012152
6.04205e-08
3.89878e-08
0.000121656
5.97565e-08
3.83055e-08
0.00012179
5.85613e-08
3.75127e-08
0.000121923
5.6621e-08
3.71796e-08
0.000122056
5.42797e-08
3.66892e-08
0.000122188
5.10322e-08
3.64873e-08
0.000122319
4.81828e-08
3.6048e-08
0.000122449
4.47529e-08
3.59559e-08
0.000122578
4.20618e-08
3.5573e-08
0.000122707
3.8706e-08
3.55945e-08
0.000122835
3.63195e-08
3.53762e-08
0.000122962
3.31057e-08
3.54111e-08
0.000123088
3.10317e-08
3.50246e-08
0.000123214
2.78386e-08
3.5148e-08
0.00012334
2.62256e-08
3.48035e-08
0.000123464
2.33389e-08
3.49743e-08
0.000123588
2.24645e-08
3.45943e-08
0.000123711
1.96452e-08
3.4848e-08
0.000123834
1.8998e-08
3.44168e-08
0.000123955
1.63003e-08
3.47881e-08
0.000124076
1.59425e-08
3.42136e-08
0.000124196
1.36041e-08
3.47724e-08
0.000124316
1.38024e-08
3.40078e-08
0.000124434
1.2495e-08
3.47054e-08
0.000124552
1.42515e-08
3.40203e-08
0.000124669
1.55588e-08
3.46847e-08
0.000124786
2.16389e-08
3.32926e-08
0.0001249
3.1774e-08
3.43878e-08
0.000125016
5.31012e-08
3.33154e-08
0.000125126
9.21954e-08
3.43356e-08
0.000125233
1.63702e-07
3.19282e-08
0.000125323
3.08309e-07
3.58471e-08
0.000125348
5.99624e-07
2.48816e-08
0.000125091
1.20213e-06
4.26111e-08
0.000124201
2.2297e-06
4.09986e-08
0.000121547
4.64751e-06
1.01163e-07
7.56489e-06
5.24357e-08
0.000115575
0.000121924
1.40043e-06
-3.12972e-07
0.000121432
5.00728e-07
-2.55069e-07
0.000120999
3.14305e-07
-1.23e-07
0.00012073
1.88036e-07
-3.34051e-08
0.000120648
8.81321e-08
-4.78651e-08
0.000120633
4.13063e-08
-3.40902e-08
0.000120654
2.60396e-08
-3.62865e-08
0.000120698
2.01944e-08
-4.23129e-08
0.00012076
1.63907e-08
-4.76838e-08
0.000120837
1.44747e-08
-5.27138e-08
0.000120923
1.34345e-08
-5.65918e-08
0.000121017
1.2181e-08
-5.89553e-08
0.000121116
1.06918e-08
-6.02307e-08
0.000121219
8.75414e-09
-6.03547e-08
0.000121325
6.70984e-09
-5.98418e-08
0.000121434
4.27572e-09
-5.84729e-08
0.000121543
1.81299e-09
-5.67281e-08
0.000121655
-1.32779e-09
-5.41538e-08
0.000121766
-4.73883e-09
-5.1189e-08
0.000121878
-7.99067e-09
-4.80145e-08
0.000121991
-1.12398e-08
-4.49566e-08
0.000122103
-1.41078e-08
-4.18373e-08
0.000122214
-1.70071e-08
-3.8966e-08
0.000122326
-1.93937e-08
-3.6026e-08
0.000122436
-2.18653e-08
-3.34254e-08
0.000122545
-2.37613e-08
-3.06661e-08
0.000122654
-2.64025e-08
-2.8229e-08
0.000122762
-2.78196e-08
-2.57802e-08
0.000122868
-2.98268e-08
-2.39096e-08
0.000122974
-3.06775e-08
-2.17664e-08
0.000123079
-3.24914e-08
-2.0249e-08
0.000123182
-3.30174e-08
-1.81171e-08
0.000123285
-3.47673e-08
-1.67913e-08
0.000123386
-3.49105e-08
-1.4656e-08
0.000123486
-3.65344e-08
-1.35399e-08
0.000123585
-3.60781e-08
-1.13625e-08
0.000123684
-3.72642e-08
-1.04861e-08
0.000123781
-3.54699e-08
-8.12538e-09
0.00012388
-3.55139e-08
-7.77403e-09
0.000123978
-3.078e-08
-4.87322e-09
0.000124082
-2.57776e-08
-5.06605e-09
0.000124191
-8.90696e-09
-1.08969e-09
0.000124313
1.71655e-08
-2.15259e-09
0.000124459
6.73079e-08
2.1215e-09
0.000124648
1.69577e-07
-1.55876e-09
0.000124914
3.72443e-07
9.91147e-09
0.000125249
9.25153e-07
-9.51771e-10
0.000125541
1.96984e-06
2.49764e-08
0.000125079
5.13273e-06
1.40841e-07
1.24661e-05
2.34819e-07
0.000120878
0.000119725
-1.50294e-07
0.000119832
3.7421e-09
0.000119901
8.10133e-08
0.000119884
8.96609e-08
0.000119854
1.11829e-07
0.000119807
1.38622e-07
0.000119751
1.50713e-07
0.000119693
1.55454e-07
0.000119634
1.58012e-07
0.000119577
1.60067e-07
0.000119522
1.59884e-07
0.000119469
1.5845e-07
0.000119418
1.55953e-07
0.000119369
1.53124e-07
0.000119322
1.49693e-07
0.000119276
1.46334e-07
0.00011923
1.43195e-07
0.000119186
1.38884e-07
0.000119144
1.33998e-07
0.000119102
1.29722e-07
0.000119061
1.25088e-07
0.000119021
1.21313e-07
0.000118981
1.17144e-07
0.000118941
1.139e-07
0.000118902
1.10113e-07
0.000118863
1.07295e-07
0.000118824
1.03807e-07
0.000118785
1.015e-07
0.000118746
9.84591e-08
0.000118708
9.65858e-08
0.000118669
9.37467e-08
0.000118631
9.20982e-08
0.000118591
8.93496e-08
0.000118554
8.78714e-08
0.000118515
8.52319e-08
0.000118478
8.38389e-08
0.00011844
8.14411e-08
0.000118405
8.05663e-08
0.00011837
7.71756e-08
0.000118343
7.5744e-08
0.000118317
7.59087e-08
0.000118314
7.30478e-08
0.000118341
7.23086e-08
0.000118417
7.06104e-08
0.000118602
7.83413e-08
0.000118973
6.06806e-08
0.000119895
9.42874e-08
0.000121845
7.76558e-08
0.000126979
7.88713e-08
4.16401e-07
0.000140046
0.000118605
-1.17691e-06
1.50227e-07
0.000118772
-1.59598e-07
-3.57629e-09
0.000118936
-1.63315e-09
-8.12052e-08
0.000119103
1.18526e-08
-8.94564e-08
0.000119176
1.50646e-07
-1.12004e-07
0.000119246
2.07213e-07
-1.3843e-07
0.000119307
2.40675e-07
-1.50914e-07
0.000119358
2.59069e-07
-1.55226e-07
0.000119401
2.73715e-07
-1.5825e-07
0.000119434
2.87138e-07
-1.59797e-07
0.000119459
2.94345e-07
-1.60159e-07
0.000119479
2.97071e-07
-1.58134e-07
0.000119493
2.97905e-07
-1.56277e-07
0.000119503
2.95905e-07
-1.52755e-07
0.00011951
2.93357e-07
-1.50074e-07
0.000119513
2.88738e-07
-1.45909e-07
0.000119516
2.84221e-07
-1.4365e-07
0.000119515
2.77568e-07
-1.38438e-07
0.000119513
2.70615e-07
-1.34452e-07
0.000119509
2.62981e-07
-1.29221e-07
0.000119504
2.56021e-07
-1.25602e-07
0.000119497
2.4868e-07
-1.20752e-07
0.00011949
2.42206e-07
-1.17713e-07
0.000119481
2.35372e-07
-1.13288e-07
0.000119473
2.29289e-07
-1.10721e-07
0.000119464
2.22921e-07
-1.06637e-07
0.000119455
2.17447e-07
-1.04473e-07
0.000119445
2.11915e-07
-1.00805e-07
0.000119436
2.07166e-07
-9.91548e-08
0.000119425
2.02435e-07
-9.58582e-08
0.000119417
1.97982e-07
-9.44735e-08
0.000119405
1.93719e-07
-9.13431e-08
0.000119396
1.89297e-07
-9.01038e-08
0.000119385
1.85616e-07
-8.71048e-08
0.000119376
1.81202e-07
-8.59947e-08
0.000119363
1.78431e-07
-8.31028e-08
0.000119354
1.74267e-07
-8.20868e-08
0.000119339
1.73151e-07
-7.92518e-08
0.000119326
1.69971e-07
-7.85551e-08
0.000119304
1.73223e-07
-7.57417e-08
0.00011928
1.742e-07
-7.53325e-08
0.000119236
1.88404e-07
-7.24271e-08
0.000119177
2.05013e-07
-7.3362e-08
0.00011907
2.42361e-07
-6.82496e-08
0.000118909
3.04927e-07
-7.48563e-08
0.000118657
3.96141e-07
-7.6322e-08
0.00011836
4.6343e-07
-8.8569e-08
0.000118167
4.89084e-07
-1.94275e-07
0.000119662
-1.0861e-06
-2.15314e-07
-2.62203e-06
-8.63739e-07
0.000123391
0.000121227
-2.15894e-07
3.12905e-07
0.000120636
-7.91457e-08
2.55103e-07
0.000120452
-6.43454e-08
1.23327e-07
0.000120333
6.43396e-08
3.32575e-08
0.000120357
3.14933e-08
4.78608e-08
0.000120452
4.32235e-08
3.41007e-08
0.000120571
4.9267e-08
3.62788e-08
0.000120699
4.61648e-08
4.23247e-08
0.000120833
4.50006e-08
4.76783e-08
0.00012097
4.40148e-08
5.27207e-08
0.000121109
4.26862e-08
5.65872e-08
0.000121247
4.11555e-08
5.89613e-08
0.000121384
4.01076e-08
6.02307e-08
0.00012152
3.89882e-08
6.03559e-08
0.000121656
3.83135e-08
5.98489e-08
0.00012179
3.75175e-08
5.84658e-08
0.000121924
3.71795e-08
5.67464e-08
0.000122056
3.67022e-08
5.41516e-08
0.000122188
3.64791e-08
5.1193e-08
0.000122319
3.60677e-08
4.80167e-08
0.000122449
3.5936e-08
4.49526e-08
0.000122578
3.56037e-08
4.18526e-08
0.000122707
3.55598e-08
3.89466e-08
0.000122835
3.54223e-08
3.60627e-08
0.000122962
3.53735e-08
3.33786e-08
0.000123089
3.50857e-08
3.07152e-08
0.000123214
3.50864e-08
2.81763e-08
0.00012334
3.4911e-08
2.58631e-08
0.000123464
3.48964e-08
2.37663e-08
0.000123588
3.47599e-08
2.19566e-08
0.000123711
3.47654e-08
2.00387e-08
0.000123834
3.47372e-08
1.83714e-08
0.000123955
3.4795e-08
1.65125e-08
0.000124076
3.49406e-08
1.49853e-08
0.000124195
3.52126e-08
1.3185e-08
0.000124315
3.58292e-08
1.18062e-08
0.000124431
3.69013e-08
1.00673e-08
0.000124548
3.90215e-08
8.83941e-09
0.000124661
4.26869e-08
7.10235e-09
0.000124773
4.96483e-08
5.82387e-09
0.000124876
6.16278e-08
4.31208e-09
0.000124975
8.33645e-08
3.48174e-09
0.000125054
1.21025e-07
1.15293e-09
0.00012511
1.86792e-07
5.08662e-10
0.000125101
3.19089e-07
-8.57008e-09
0.000124961
5.37755e-07
1.86843e-09
0.000124632
8.4322e-07
-4.95646e-08
0.000123822
1.32619e-06
-1.55975e-08
0.000121278
1.68049e-06
-1.40226e-07
1.64755e-06
-1.58067e-07
0.000117359
0.000120478
2.15939e-07
2.15923e-07
0.000120152
7.91571e-08
8.36341e-08
0.000120059
6.37931e-08
-1.73858e-08
0.000120206
-6.4182e-08
-9.36256e-09
0.000120328
-3.14254e-08
-2.93997e-08
0.0001205
-4.33323e-08
-4.28918e-08
0.000120697
-4.91907e-08
-4.90671e-08
0.000120881
-4.62909e-08
-4.61634e-08
0.000121061
-4.49008e-08
-4.49769e-08
0.000121238
-4.41559e-08
-4.40307e-08
0.000121408
-4.25675e-08
-4.26701e-08
0.000121573
-4.13073e-08
-4.11705e-08
0.000121733
-3.99735e-08
-4.00965e-08
0.000121889
-3.91529e-08
-3.89997e-08
0.000122042
-3.81651e-08
-3.83092e-08
0.000122193
-3.76942e-08
-3.75225e-08
0.000122341
-3.70166e-08
-3.71827e-08
0.000122488
-3.689e-08
-3.66973e-08
0.000122634
-3.62944e-08
-3.64923e-08
0.000122778
-3.62823e-08
-3.60532e-08
0.000122922
-3.57302e-08
-3.59631e-08
0.000123065
-3.58419e-08
-3.55729e-08
0.000123207
-3.5327e-08
-3.56054e-08
0.000123348
-3.56848e-08
-3.53705e-08
0.00012349
-3.51367e-08
-3.54243e-08
0.00012363
-3.53447e-08
-3.50138e-08
0.000123771
-3.48014e-08
-3.51724e-08
0.00012391
-3.52009e-08
-3.47872e-08
0.00012405
-3.4516e-08
-3.50087e-08
0.000124189
-3.50707e-08
-3.45722e-08
0.000124327
-3.42154e-08
-3.48804e-08
0.000124466
-3.49578e-08
-3.4414e-08
0.000124604
-3.37876e-08
-3.47808e-08
0.000124742
-3.47002e-08
-3.42884e-08
0.00012488
-3.28956e-08
-3.4679e-08
0.000125018
-3.38093e-08
-3.41648e-08
0.000125154
-3.06168e-08
-3.46993e-08
0.000125292
-3.05544e-08
-3.39041e-08
0.000125428
-2.43286e-08
-3.45336e-08
0.000125565
-2.01234e-08
-3.4041e-08
0.000125701
-4.72521e-09
-3.47003e-08
0.000125837
1.47952e-08
-3.40668e-08
0.000125968
5.92267e-08
-3.48417e-08
0.000126095
1.27965e-07
-3.67939e-08
0.00012621
2.70594e-07
-3.07395e-08
0.000126258
5.55993e-07
-4.14733e-08
0.00012603
1.15865e-06
-4.4285e-08
0.00012526
2.19123e-06
-5.40069e-08
0.000122591
4.56092e-06
-1.10505e-07
7.68425e-06
7.58626e-09
0.000116599
0.000121227
1.17694e-06
3.1296e-07
0.000120636
1.59494e-07
2.55061e-07
0.000120452
1.95082e-09
1.23005e-07
0.000120333
-1.21808e-08
3.34157e-08
0.000120356
-1.50526e-07
4.78635e-08
0.000120452
-2.07349e-07
3.40839e-08
0.000120571
-2.40549e-07
3.62809e-08
0.000120699
-2.59233e-07
4.23078e-08
0.000120833
-2.73532e-07
4.7676e-08
0.00012097
-2.8735e-07
5.27117e-08
0.000121109
-2.94133e-07
5.65833e-08
0.000121247
-2.97306e-07
5.8958e-08
0.000121384
-2.97664e-07
6.022e-08
0.00012152
-2.9617e-07
6.03622e-08
0.000121656
-2.93082e-07
5.98266e-08
0.00012179
-2.89034e-07
5.84869e-08
0.000121924
-2.83902e-07
5.67054e-08
0.000122056
-2.77896e-07
5.41769e-08
0.000122188
-2.70272e-07
5.11578e-08
0.000122319
-2.63358e-07
4.80477e-08
0.000122449
-2.55633e-07
4.49138e-08
0.000122578
-2.491e-07
4.18851e-08
0.000122707
-2.41777e-07
3.89084e-08
0.000122835
-2.35836e-07
3.60913e-08
0.000122962
-2.28835e-07
3.33479e-08
0.000123089
-2.23417e-07
3.07496e-08
0.000123214
-2.16935e-07
2.81269e-08
0.00012334
-2.12409e-07
2.58923e-08
0.000123464
-2.06633e-07
2.37393e-08
0.000123589
-2.02885e-07
2.19435e-08
0.000123711
-1.97402e-07
2.00518e-08
0.000123834
-1.94028e-07
1.83164e-08
0.000123955
-1.88534e-07
1.65692e-08
0.000124077
-1.85492e-07
1.48676e-08
0.000124197
-1.79766e-07
1.32873e-08
0.000124317
-1.76993e-07
1.15918e-08
0.000124436
-1.7049e-07
1.02015e-08
0.000124556
-1.67006e-07
8.3962e-09
0.000124676
-1.59892e-07
7.40889e-09
0.000124799
-1.52181e-07
4.94114e-09
0.000124926
-1.41787e-07
4.33173e-09
0.000125058
-1.18492e-07
6.90123e-10
0.000125205
-9.07669e-08
7.9898e-10
0.000125373
-3.38503e-08
-3.92613e-09
0.000125582
6.22944e-08
-2.42983e-09
0.00012589
2.67933e-07
-9.61934e-09
0.000126238
8.11369e-07
-2.5525e-09
0.000126592
1.88121e-06
-1.9087e-08
0.000126369
5.05138e-06
-1.25719e-07
1.23485e-05
-2.27987e-07
0.000122167
0.000118605
1.50286e-07
0.000118772
-3.73894e-09
0.000118936
-8.10302e-08
0.000119103
-8.96417e-08
0.000119176
-1.11849e-07
0.000119246
-1.386e-07
0.000119307
-1.50729e-07
0.000119358
-1.55427e-07
0.000119401
-1.58029e-07
0.000119434
-1.60037e-07
0.000119459
-1.599e-07
0.000119479
-1.58417e-07
0.000119493
-1.5597e-07
0.000119503
-1.53089e-07
0.000119509
-1.49711e-07
0.000119513
-1.46297e-07
0.000119516
-1.43215e-07
0.000119515
-1.3885e-07
0.000119513
-1.34019e-07
0.000119509
-1.29684e-07
0.000119504
-1.25114e-07
0.000119497
-1.21267e-07
0.00011949
-1.17178e-07
0.000119482
-1.13844e-07
0.000119473
-1.10154e-07
0.000119464
-1.07228e-07
0.000119455
-1.03856e-07
0.000119446
-1.01431e-07
0.000119436
-9.85143e-08
0.000119426
-9.65148e-08
0.000119416
-9.38054e-08
0.000119406
-9.20289e-08
0.000119397
-8.94107e-08
0.000119387
-8.78121e-08
0.000119378
-8.52968e-08
0.000119368
-8.37894e-08
0.000119361
-8.15225e-08
0.000119355
-8.05199e-08
0.000119349
-7.72644e-08
0.000119349
-7.59413e-08
0.000119359
-7.64482e-08
0.000119387
-7.33798e-08
0.000119441
-7.26273e-08
0.000119551
-7.2854e-08
0.000119769
-7.76874e-08
0.00012016
-6.24775e-08
0.000121158
-9.20776e-08
0.000123193
-7.64429e-08
0.000128405
-8.13284e-08
-4.13625e-07
0.000141584
0.000119725
-1.4003e-06
1.15585e-06
0.000119832
-5.00882e-07
3.90275e-07
0.000119901
-3.14441e-07
1.64135e-07
0.000119884
-1.88034e-07
1.163e-07
0.000119854
-8.81288e-08
5.8819e-09
0.000119807
-4.13236e-08
-5.02202e-08
0.000119751
-2.60489e-08
-6.87563e-08
0.000119693
-2.02032e-08
-7.67642e-08
0.000119634
-1.6403e-08
-8.38261e-08
0.000119577
-1.44647e-08
-8.80874e-08
0.000119522
-1.34585e-08
-9.16436e-08
0.000119469
-1.21507e-08
-9.28747e-08
0.000119418
-1.07371e-08
-9.48103e-08
0.000119369
-8.698e-09
-9.49653e-08
0.000119322
-6.77928e-09
-9.62674e-08
0.000119276
-4.18228e-09
-9.55067e-08
0.00011923
-1.89568e-09
-9.61866e-08
0.000119186
1.43763e-09
-9.57296e-08
0.000119144
4.5903e-09
-9.65258e-08
0.000119102
8.16568e-09
-9.53212e-08
0.000119061
1.10314e-08
-9.59847e-08
0.00011902
1.43466e-08
-9.44247e-08
0.000118981
1.67347e-08
-9.49218e-08
0.000118941
1.96984e-08
-9.30758e-08
0.000118902
2.15088e-08
-9.35125e-08
0.000118863
2.42485e-08
-9.14514e-08
0.000118824
2.58727e-08
-9.19606e-08
0.000118785
2.84139e-08
-8.96939e-08
0.000118747
2.91955e-08
-9.02153e-08
0.000118707
3.14717e-08
-8.77281e-08
0.000118669
3.17578e-08
-8.83397e-08
0.000118629
3.41503e-08
-8.56711e-08
0.000118592
3.39949e-08
-8.63877e-08
0.000118551
3.67736e-08
-8.35581e-08
0.000118514
3.60944e-08
-8.43823e-08
0.000118472
3.97432e-08
-8.14223e-08
0.000118434
3.85751e-08
-8.23483e-08
0.00011839
4.41307e-08
-7.9271e-08
0.000118348
4.31254e-08
-8.02441e-08
0.000118297
5.29691e-08
-7.71057e-08
0.000118244
5.54874e-08
-7.8137e-08
0.000118169
7.76096e-08
-7.51793e-08
0.000118081
9.17713e-08
-7.66593e-08
0.00011794
1.46871e-07
-7.40736e-08
0.000117751
1.93104e-07
-7.96538e-08
0.000117435
3.23629e-07
-8.33286e-08
0.000117084
3.81007e-07
-1.1865e-07
0.00011687
2.36477e-07
-2.17016e-07
0.000117305
-3.58211e-07
-2.91641e-07
-4.80897e-06
-8.09048e-07
0.000122059
0.000121924
-3.12832e-07
1.40007e-06
0.000121432
-2.53129e-07
4.99551e-07
0.000120999
-6.98407e-08
3.11473e-07
0.00012073
-7.50058e-08
1.89259e-07
0.000120648
-4.73151e-08
8.90642e-08
0.000120633
-3.41007e-08
4.12715e-08
0.000120654
-3.61758e-08
2.61539e-08
0.000120698
-4.23185e-08
2.01765e-08
0.00012076
-4.76773e-08
1.64524e-08
0.000120837
-5.27102e-08
1.44392e-08
0.000120923
-5.65966e-08
1.3497e-08
0.000121017
-5.89431e-08
1.21288e-08
0.000121116
-6.02503e-08
1.07657e-08
0.000121219
-6.03273e-08
8.68414e-09
0.000121325
-5.98809e-08
6.80237e-09
0.000121434
-5.84269e-08
4.1819e-09
0.000121543
-5.67894e-08
1.93954e-09
0.000121655
-5.40788e-08
-1.46345e-09
0.000121766
-5.12768e-08
-4.57278e-09
0.000121878
-4.79131e-08
-8.1699e-09
0.000121991
-4.50749e-08
-1.10229e-08
0.000122103
-4.17052e-08
-1.43481e-08
0.000122214
-3.91174e-08
-1.67236e-08
0.000122326
-3.58594e-08
-1.97074e-08
0.000122436
-3.36135e-08
-2.14905e-08
0.000122545
-3.04311e-08
-2.42407e-08
0.000122654
-2.84714e-08
-2.58686e-08
0.000122762
-2.54954e-08
-2.84015e-08
0.000122868
-2.42044e-08
-2.91895e-08
0.000122974
-2.13608e-08
-3.14129e-08
0.000123079
-2.05581e-08
-3.17733e-08
0.000123183
-1.75358e-08
-3.39564e-08
0.000123284
-1.69971e-08
-3.40222e-08
0.000123386
-1.36496e-08
-3.62243e-08
0.000123484
-1.3258e-08
-3.60251e-08
0.000123583
-9.16689e-09
-3.8264e-08
0.000123678
-8.44557e-09
-3.78872e-08
0.000123774
-2.45348e-09
-4.01014e-08
0.000123863
2.78702e-10
-3.93907e-08
0.000123953
1.0543e-08
-4.15171e-08
0.000124032
2.08064e-08
-4.0436e-08
0.000124108
4.80025e-08
-4.28589e-08
0.000124162
8.03937e-08
-4.11134e-08
0.00012418
1.72404e-07
-4.30099e-08
0.000124141
2.61193e-07
-3.73624e-08
0.000123953
5.63277e-07
-5.04687e-08