/*--------------------------------*- C++ -*----------------------------------*\
| =========                 |                                                 |
| \\      /  F ield         | OpenFOAM: The Open Source CFD Toolbox           |
|  \\    /   O peration     | Version:                                        |
|   \\  /    A nd           | Website:  www.openfoam.com                      |
|    \\/     M anipulation  |                                                 |
\*---------------------------------------------------------------------------*/
FoamFile
{
    version     2.0;
    format      ascii;
    class       volVectorField;
    location    "1.5";
    object      U;
}
// * * * * * * * * * * * * * * * * * * * * * * * * * * * * * * * * * * * * * //

dimensions      [0 1 -1 0 0 0 0];


internalField   nonuniform List<vector> 
3850
(
(7.20597 -0.341564 -0.341558)
(7.29374 -0.281908 -0.281878)
(7.38207 -0.235139 -0.235064)
(7.39164 -0.204337 -0.204344)
(7.38395 -0.176543 -0.176584)
(7.37736 -0.152666 -0.152652)
(7.37143 -0.133059 -0.133083)
(7.36218 -0.116443 -0.116425)
(7.35237 -0.102097 -0.10212)
(7.34083 -0.0894899 -0.0894694)
(7.33011 -0.0785631 -0.078587)
(7.31796 -0.0689225 -0.0688992)
(7.30685 -0.0605607 -0.0605868)
(7.2943 -0.0531171 -0.0530913)
(7.28304 -0.0466754 -0.0467038)
(7.2703 -0.0408971 -0.0408688)
(7.25908 -0.0359391 -0.0359691)
(7.24629 -0.0314993 -0.0314682)
(7.23513 -0.0278082 -0.027841)
(7.22223 -0.0243837 -0.0243507)
(7.21121 -0.021571 -0.0216055)
(7.19831 -0.0188562 -0.018822)
(7.18752 -0.0167019 -0.016737)
(7.17467 -0.0145082 -0.0144738)
(7.16416 -0.0128677 -0.0129019)
(7.15138 -0.0110605 -0.0110258)
(7.1412 -0.00983043 -0.00986046)
(7.12849 -0.00830028 -0.00827282)
(7.11867 -0.00741461 -0.00743952)
(7.10604 -0.00608767 -0.00606827)
(7.09662 -0.00550056 -0.00551794)
(7.08407 -0.00430944 -0.0043028)
(7.07506 -0.00398924 -0.00399736)
(7.06258 -0.00286913 -0.00288489)
(7.054 -0.00279672 -0.00279759)
(7.04155 -0.00168036 -0.00173992)
(7.03339 -0.00184567 -0.00185703)
(7.02089 -0.000651431 -0.000808849)
(7.01304 -0.0010312 -0.00112582)
(7.00023 0.000396864 -5.84764e-05)
(6.99232 -0.000113881 -0.000578922)
(6.97835 0.00184331 0.000567886)
(6.96935 0.00154428 -0.000157025)
(6.95158 0.00485462 0.00104663)
(6.93879 0.00555169 0.000257324)
(6.91106 0.0111126 0.00171299)
(6.8925 0.0139716 0.000150236)
(6.84823 0.00941426 0.00761307)
(6.83061 -0.0204866 0.010191)
(6.88774 -0.178097 0.0413848)
(7.46904 0.0787264 -0.350567)
(7.48118 0.112487 -0.291393)
(7.49448 0.121733 -0.233697)
(7.49652 0.114932 -0.192397)
(7.49285 0.108375 -0.158709)
(7.4891 0.100912 -0.132051)
(7.48614 0.0924156 -0.111078)
(7.48265 0.0837329 -0.0940772)
(7.47911 0.0758809 -0.0798663)
(7.47529 0.0687159 -0.0679047)
(7.47189 0.0624357 -0.0577248)
(7.46836 0.0566325 -0.0490361)
(7.46527 0.0516258 -0.0415466)
(7.46201 0.0469696 -0.0351052)
(7.45915 0.0430236 -0.0295219)
(7.45609 0.0392778 -0.0247052)
(7.45341 0.036168 -0.0205168)
(7.45042 0.03316 -0.0169063)
(7.44788 0.0307335 -0.0137109)
(7.44506 0.0283221 -0.0109789)
(7.44267 0.0264454 -0.00855969)
(7.43993 0.0244795 -0.00651235)
(7.43763 0.0230205 -0.00468984)
(7.43494 0.0213885 -0.00316477)
(7.4327 0.0202524 -0.00179759)
(7.43004 0.0188708 -0.000676944)
(7.42784 0.0179911 0.000321949)
(7.42517 0.0168051 0.00111489)
(7.42299 0.016135 0.00184779)
(7.42031 0.0151019 0.00242283)
(7.41814 0.014602 0.00296856)
(7.41546 0.0136869 0.00337955)
(7.4133 0.0133215 0.00379158)
(7.4106 0.0125073 0.0040783)
(7.40844 0.0122536 0.00439545)
(7.40571 0.0115434 0.00458551)
(7.40352 0.0114122 0.00483327)
(7.40071 0.010818 0.0049535)
(7.39845 0.0108935 0.00514213)
(7.39542 0.0106806 0.00519391)
(7.39281 0.0112035 0.0053217)
(7.38908 0.0118696 0.00535015)
(7.38552 0.0136786 0.00541893)
(7.37871 0.0174019 0.00542817)
(7.37267 0.0222775 0.00550722)
(7.35026 0.0363753 0.00510719)
(7.3399 0.0472114 0.00675992)
(7.24435 0.0645658 0.0051822)
(7.20749 0.0524478 0.00588881)
(6.79407 -0.0692658 0.0132355)
(7.37811 8.68936e-07 -0.333754)
(7.41116 1.59843e-05 -0.267491)
(7.43702 -2.33092e-05 -0.207466)
(7.44297 2.09023e-05 -0.16578)
(7.44635 -2.32511e-05 -0.130813)
(7.45039 2.51515e-05 -0.103079)
(7.45472 -2.66082e-05 -0.0814193)
(7.45842 2.87646e-05 -0.0641294)
(7.46142 -3.02682e-05 -0.0498291)
(7.46374 3.28738e-05 -0.0381446)
(7.46554 -3.459e-05 -0.0283838)
(7.46691 3.73971e-05 -0.020301)
(7.46796 -3.94048e-05 -0.0134284)
(7.4687 4.26313e-05 -0.00775015)
(7.46921 -4.47778e-05 -0.00287431)
(7.4695 4.84513e-05 0.00110489)
(7.46966 -5.11421e-05 0.00455633)
(7.46975 5.57951e-05 0.00733985)
(7.46967 -5.7379e-05 0.00969124)
(7.46949 6.1833e-05 0.0115304)
(7.46917 -6.4279e-05 0.0131068)
(7.46881 6.87964e-05 0.0142923)
(7.46835 -7.16171e-05 0.0153278)
(7.46789 7.64313e-05 0.0160518)
(7.46733 -7.91845e-05 0.0167052)
(7.46682 8.49744e-05 0.0170927)
(7.46621 -8.60809e-05 0.0174587)
(7.46567 9.26093e-05 0.0175977)
(7.46501 -9.19955e-05 0.0177712)
(7.46447 0.000100967 0.0177533)
(7.46377 -9.50232e-05 0.0177983)
(7.46324 0.000112317 0.0176691)
(7.46252 -8.79426e-05 0.0176212)
(7.462 0.000136065 0.017406)
(7.46127 -5.19485e-05 0.0173022)
(7.46074 0.000201418 0.0170183)
(7.46003 7.94839e-05 0.0168696)
(7.45956 0.000392352 0.0165966)
(7.45848 0.000539139 0.0163378)
(7.45825 0.00109689 0.0160381)
(7.4573 0.00194969 0.0157768)
(7.45719 0.0031506 0.0155154)
(7.4559 0.00703357 0.0152021)
(7.45544 0.0100786 0.0149402)
(7.45135 0.0241199 0.0143674)
(7.44916 0.0332425 0.0139795)
(7.4213 0.0783494 0.0141209)
(7.4005 0.109683 0.00732702)
(7.22531 0.22418 0.030398)
(7.03666 0.313913 0.00476484)
(7.46904 -0.0787191 -0.350568)
(7.48118 -0.112517 -0.291389)
(7.49447 -0.121713 -0.233701)
(7.49653 -0.114963 -0.192392)
(7.49284 -0.108343 -0.158716)
(7.48911 -0.100943 -0.132045)
(7.48613 -0.0923797 -0.111085)
(7.48266 -0.0837684 -0.0940708)
(7.4791 -0.0758404 -0.0798729)
(7.47531 -0.0687559 -0.067898)
(7.47187 -0.0623905 -0.0577317)
(7.46838 -0.0566775 -0.049029)
(7.46526 -0.0515752 -0.0415536)
(7.46202 -0.0470202 -0.0350978)
(7.45915 -0.042967 -0.0295291)
(7.4561 -0.0393346 -0.0246975)
(7.4534 -0.0361049 -0.020524)
(7.45042 -0.0332242 -0.0168993)
(7.44787 -0.030664 -0.0137187)
(7.44506 -0.0283933 -0.0109711)
(7.44267 -0.0263693 -0.00856775)
(7.43993 -0.0245575 -0.00650425)
(7.43764 -0.0229376 -0.00469802)
(7.43494 -0.0214731 -0.00315653)
(7.43271 -0.0201629 -0.00180569)
(7.43003 -0.0189617 -0.000668369)
(7.42786 -0.0178949 0.000315077)
(7.42515 -0.0169001 0.00112141)
(7.42301 -0.0160314 0.00184322)
(7.42028 -0.0151991 0.00242874)
(7.41818 -0.0144887 0.00296276)
(7.41543 -0.0137777 0.00338585)
(7.41337 -0.0131871 0.00378333)
(7.41058 -0.0125658 0.00408642)
(7.40858 -0.0120596 0.00438219)
(7.40576 -0.0114896 0.00459562)
(7.40384 -0.0110287 0.00481344)
(7.40103 -0.0104018 0.00496265)
(7.39929 -0.00990083 0.00511928)
(7.39663 -0.00910748 0.00521025)
(7.39535 -0.00827215 0.00534433)
(7.39301 -0.00638791 0.0054433)
(7.39259 -0.00466152 0.00554374)
(7.39349 0.00258014 0.00571392)
(7.39441 0.00672247 0.00622102)
(7.40302 0.0347149 0.00540014)
(7.41236 0.0475918 0.00772133)
(7.40712 0.168538 0.00576175)
(7.44389 0.249725 -0.00226196)
(7.12095 0.778884 0.0394822)
(7.20596 0.34157 -0.341562)
(7.29384 0.281933 -0.281897)
(7.38193 0.235101 -0.235038)
(7.39179 0.204368 -0.204366)
(7.3838 0.176506 -0.176557)
(7.37751 0.152704 -0.152678)
(7.37127 0.133016 -0.133052)
(7.36235 0.116487 -0.116456)
(7.35218 0.102049 -0.102085)
(7.34102 0.0895409 -0.089504)
(7.32991 0.0785076 -0.0785476)
(7.31816 0.0689813 -0.068939)
(7.30663 0.0604971 -0.0605422)
(7.29453 0.0531849 -0.0531369)
(7.2828 0.0466024 -0.046653)
(7.27055 0.0409755 -0.040921)
(7.25881 0.0358552 -0.0359117)
(7.24657 0.0315906 -0.0315284)
(7.23483 0.0277093 -0.027776)
(7.22254 0.0244914 -0.0244193)
(7.21088 0.0214543 -0.0215315)
(7.19866 0.0189838 -0.0189003)
(7.18716 0.0165634 -0.0166526)
(7.17505 0.0146599 -0.0145632)
(7.16376 0.0127025 -0.0128057)
(7.1518 0.0112409 -0.0111289)
(7.14075 0.0096325 -0.0097527)
(7.12896 0.00851816 -0.00838718)
(7.11818 0.0071776 -0.00731768)
(7.10657 0.00635099 -0.00619717)
(7.09608 0.00521688 -0.00538012)
(7.08467 0.00463175 -0.00444938)
(7.07449 0.00365149 -0.00384048)
(7.06328 0.00327423 -0.00305265)
(7.05344 0.00240486 -0.00261861)
(7.04247 0.00221842 -0.00193343)
(7.03302 0.00143118 -0.00164968)
(7.02233 0.00144614 -0.00102908)
(7.01343 0.000734679 -0.000894581)
(7.00327 0.00100502 -0.000312956)
(6.99531 0.000484139 -0.000322206)
(6.98639 0.00119222 0.000283079)
(6.98069 0.00144753 0.000520185)
(6.97424 0.00259199 0.000789828)
(6.97927 0.00861984 0.00139459)
(6.98051 0.0106232 0.00232476)
(7.04013 0.0407042 0.000663484)
(7.08639 0.0377609 0.00711289)
(7.33304 0.234171 0.00493533)
(7.78454 0.184183 0.0258478)
(7.46906 -0.350571 0.0787396)
(7.4812 -0.291392 0.112516)
(7.49444 -0.23381 0.122137)
(7.49638 -0.192346 0.114809)
(7.4929 -0.158716 0.108246)
(7.48909 -0.132017 0.10093)
(7.48618 -0.111109 0.0923995)
(7.48262 -0.0940387 0.0837427)
(7.47915 -0.0799068 0.075871)
(7.47526 -0.06786 0.0687268)
(7.47193 -0.0577738 0.0624245)
(7.46832 -0.0489832 0.0566446)
(7.46531 -0.0416048 0.0516131)
(7.46196 -0.0350424 0.0469828)
(7.4592 -0.029591 0.0430095)
(7.45605 -0.0246309 0.0392922)
(7.45345 -0.020599 0.0361529)
(7.45037 -0.0168191 0.0331751)
(7.44793 -0.0138069 0.0307176)
(7.44501 -0.010876 0.0283375)
(7.44272 -0.00867244 0.0264298)
(7.43989 -0.00639097 0.0244941)
(7.43768 -0.0048227 0.0230065)
(7.4349 -0.00302144 0.0214008)
(7.43275 -0.00195485 0.0202418)
(7.43 -0.000508667 0.0188794)
(7.42788 0.00013377 0.0179847)
(7.42514 0.00131893 0.0168066)
(7.42302 0.00162379 0.016134)
(7.42028 0.002668 0.0150946)
(7.41816 0.00270143 0.0146073)
(7.41543 0.00367595 0.0136637)
(7.41331 0.00347352 0.0133313)
(7.41058 0.00444186 0.0124505)
(7.40842 0.00402155 0.0122539)
(7.40569 0.00504373 0.0114119)
(7.40344 0.00441415 0.011333)
(7.40064 0.00556441 0.0105166)
(7.39818 0.00474228 0.0105451)
(7.39512 0.00615152 0.00972862)
(7.39196 0.005234 0.00984204)
(7.38795 0.00719123 0.00902411)
(7.38314 0.00635833 0.00931497)
(7.37573 0.00999204 0.00827868)
(7.36722 0.00913648 0.00902959)
(7.35046 0.0164136 0.00791975)
(7.33799 0.0148179 0.00921727)
(7.30414 0.0230645 0.0120834)
(7.33469 -0.0400681 0.0245732)
(7.42655 -0.0328455 0.0395895)
(7.72387 0.0562681 0.0562703)
(7.59814 0.097907 0.0978697)
(7.55568 0.0980934 0.0983292)
(7.54811 0.0890517 0.0889533)
(7.54279 0.0804863 0.0804284)
(7.53933 0.0713147 0.0713177)
(7.53934 0.0616162 0.0616134)
(7.5417 0.0524346 0.0524313)
(7.54532 0.0443617 0.0443647)
(7.5497 0.0373108 0.0373071)
(7.55484 0.0312271 0.0312304)
(7.56048 0.0260197 0.0260157)
(7.56655 0.0216007 0.0216043)
(7.57289 0.017843 0.0178386)
(7.57946 0.0146737 0.0146777)
(7.58617 0.0119845 0.0119799)
(7.59301 0.00973009 0.009735)
(7.59992 0.00784798 0.00784354)
(7.60688 0.00632237 0.00632684)
(7.61389 0.00503062 0.00502592)
(7.62089 0.00398272 0.00398738)
(7.62793 0.00308198 0.00307696)
(7.63489 0.00236086 0.00236603)
(7.64191 0.00173557 0.00172998)
(7.64877 0.00124398 0.00125047)
(7.65571 0.000808279 0.000802775)
(7.66243 0.000463879 0.00047319)
(7.66929 0.000167294 0.000155461)
(7.67589 -5.69736e-05 -4.49864e-05)
(7.68267 -0.000220442 -0.000238872)
(7.68909 -0.000350321 -0.000334723)
(7.69576 -0.000409014 -0.000439588)
(7.702 -0.000485226 -0.000469464)
(7.70856 -0.00045461 -0.000512215)
(7.71458 -0.000501262 -0.000500739)
(7.72102 -0.000372622 -0.000496175)
(7.72679 -0.0003886 -0.00046294)
(7.73307 -0.000114343 -0.000413956)
(7.7385 -2.5629e-05 -0.000378346)
(7.74449 0.000590211 -0.000312493)
(7.74934 0.00106387 -0.000285292)
(7.75469 0.0024749 -0.000169348)
(7.75805 0.00446089 -0.000199469)
(7.76172 0.00751823 -5.75152e-05)
(7.75925 0.0172704 -0.00023128)
(7.75792 0.0238895 2.39143e-05)
(7.72721 0.0437349 0.000979501)
(7.7152 0.0593159 -0.000539269)
(7.55238 0.0174513 0.0131302)
(7.41857 -0.0294701 0.0234959)
(7.65268 -3.0655e-07 0.0644062)
(7.55601 1.28924e-06 0.110319)
(7.51806 -3.15215e-06 0.107582)
(7.51708 3.21557e-06 0.0926377)
(7.52095 -6.40234e-06 0.0823887)
(7.52495 6.34752e-06 0.0747086)
(7.53126 -8.38622e-06 0.0664037)
(7.53928 8.83729e-06 0.058307)
(7.54779 -1.09305e-05 0.051146)
(7.55629 1.19998e-05 0.0448139)
(7.56493 -1.42299e-05 0.0393271)
(7.57358 1.56866e-05 0.0345777)
(7.58223 -1.82406e-05 0.0305222)
(7.59076 2.0177e-05 0.0269901)
(7.59927 -2.30142e-05 0.0239697)
(7.60767 2.54608e-05 0.0213141)
(7.61607 -2.87857e-05 0.0190494)
(7.62435 3.16046e-05 0.0170091)
(7.63265 -3.53878e-05 0.0152451)
(7.64082 3.86084e-05 0.0136614)
(7.64902 -4.29237e-05 0.0123327)
(7.65708 4.67054e-05 0.0111321)
(7.6652 -5.13733e-05 0.01015)
(7.67316 5.57405e-05 0.00924343)
(7.6812 -6.03747e-05 0.00853622)
(7.68905 6.63218e-05 0.00787807)
(7.69701 -6.81255e-05 0.00739031)
(7.70478 7.39604e-05 0.00688811)
(7.71269 -7.38597e-05 0.00654441)
(7.72036 8.34711e-05 0.00614831)
(7.72819 -7.9811e-05 0.00590799)
(7.73573 9.60829e-05 0.00557486)
(7.74349 -7.55516e-05 0.00541112)
(7.75091 0.000119626 0.00511296)
(7.75861 -4.31775e-05 0.00501833)
(7.7659 0.000181981 0.00473805)
(7.77353 7.50457e-05 0.00469959)
(7.7807 0.000379791 0.00446318)
(7.7883 0.000460811 0.00446329)
(7.79532 0.00103195 0.00417334)
(7.80286 0.00170582 0.00425392)
(7.80968 0.00322583 0.00399056)
(7.81712 0.00549239 0.00413795)
(7.82326 0.0106677 0.00371979)
(7.82987 0.0163141 0.00402755)
(7.83101 0.0405732 0.00298629)
(7.83099 0.0569966 0.00552013)
(7.7752 0.129376 0.00247097)
(7.71228 0.184894 0.0120045)
(7.40334 0.329281 -0.00280049)
(7.72388 -0.0562595 0.0562654)
(7.59814 -0.0979156 0.0978772)
(7.55568 -0.0980959 0.0983266)
(7.54811 -0.0890591 0.088959)
(7.5428 -0.0804819 0.0804245)
(7.53933 -0.0713222 0.0713238)
(7.53935 -0.0616099 0.0616084)
(7.54168 -0.052444 0.0524384)
(7.54534 -0.0443529 0.0443587)
(7.54969 -0.0373223 0.0373151)
(7.55486 -0.0312154 0.0312229)
(7.56045 -0.0260339 0.0260248)
(7.56658 -0.0215858 0.0215955)
(7.57285 -0.0178602 0.0178488)
(7.5795 -0.0146553 0.0146678)
(7.58613 -0.0120051 0.011991)
(7.59306 -0.00970815 0.00972446)
(7.59986 -0.00787224 0.00785519)
(7.60694 -0.00629762 0.00631483)
(7.61382 -0.00505794 0.00503897)
(7.62097 -0.00395501 0.00397416)
(7.62784 -0.00311179 0.00309123)
(7.63499 -0.00233057 0.00235162)
(7.64179 -0.00176735 0.00174542)
(7.64889 -0.00121207 0.00123498)
(7.65557 -0.000842026 0.000819469)
(7.66258 -0.000432498 0.00045559)
(7.66914 -0.000196156 0.00017406)
(7.67607 8.76396e-05 -6.43967e-05)
(7.68248 0.00019892 -0.000218336)
(7.6893 0.000380557 -0.000356577)
(7.69556 0.000404194 -0.000416327)
(7.70226 0.000524538 -0.000494674)
(7.70834 0.000492681 -0.000485081)
(7.71492 0.000585028 -0.000531139)
(7.72085 0.000531789 -0.000463992)
(7.72731 0.000641428 -0.000498639)
(7.73313 0.000640065 -0.000371555)
(7.73956 0.000844081 -0.000427244)
(7.7454 0.00104548 -0.000231217)
(7.75205 0.00165964 -0.000304862)
(7.75829 0.0026008 3.1533e-05)
(7.76598 0.00509742 -8.29795e-05)
(7.77311 0.00759533 0.000480035)
(7.78552 0.0181537 -6.63777e-05)
(7.79496 0.0250712 0.00116727)
(7.81953 0.0787518 -0.000115743)
(7.82691 0.100885 0.00168123)
(7.82389 0.366954 0.0146193)
(7.72092 0.522927 0.0317291)
(7.46906 0.350573 0.0787333)
(7.48124 0.291409 0.112536)
(7.4944 0.233782 0.122117)
(7.49644 0.19237 0.114833)
(7.49285 0.158688 0.108222)
(7.48914 0.132048 0.100957)
(7.48612 0.111074 0.0923712)
(7.48268 0.0940767 0.0837739)
(7.47908 0.0798642 0.0758378)
(7.47532 0.0679062 0.0687628)
(7.47185 0.0577224 0.0623863)
(7.4684 0.0490389 0.0566859)
(7.46523 0.0415433 0.0515692)
(7.46204 0.0351094 0.0470303)
(7.45912 0.0295173 0.0429591)
(7.45613 0.0247111 0.0393468)
(7.45337 0.0205109 0.0360949)
(7.45046 0.0169158 0.0332392)
(7.44783 0.0137007 0.0306512)
(7.4451 0.010992 0.0284098)
(7.44262 0.00854493 0.0263538)
(7.43999 0.00653055 0.0245767)
(7.43758 0.00466955 0.0229193)
(7.435 0.0031891 0.0214955)
(7.43264 0.00177065 0.0201415)
(7.4301 0.000707901 0.0189878)
(7.42777 -0.000357876 0.0178697)
(7.42524 -0.00107313 0.0169307)
(7.42291 -0.00189483 0.0160026)
(7.42039 -0.00236957 0.0152357)
(7.41807 -0.00302491 0.0144578)
(7.41555 -0.00331164 0.0138231)
(7.41324 -0.00385697 0.0131631)
(7.41074 -0.00398891 0.0126278)
(7.40844 -0.00446358 0.0120681)
(7.40597 -0.00445477 0.0116042)
(7.40372 -0.00487955 0.0111351)
(7.40135 -0.00471788 0.0107494)
(7.39925 -0.00509743 0.0103075)
(7.39721 -0.00474665 0.00992517)
(7.39582 -0.004959 0.00966918)
(7.39435 -0.00404989 0.00931961)
(7.39477 -0.00347242 0.00929838)
(7.40019 -0.000664227 0.00888818)
(7.40255 0.00121505 0.00984515)
(7.43293 0.0119836 0.00665565)
(7.44341 0.020311 0.0115214)
(7.59724 0.0743126 0.00416314)
(7.65247 0.112684 0.00342091)
(8.30515 0.535774 0.0563922)
(7.37817 -0.333762 -4.99224e-07)
(7.41142 -0.267573 1.1337e-05)
(7.43685 -0.207713 -1.0971e-05)
(7.4424 -0.165697 1.27379e-05)
(7.44654 -0.130738 -1.3234e-05)
(7.45047 -0.103073 1.38412e-05)
(7.45475 -0.0814228 -1.48016e-05)
(7.45839 -0.06412 1.58721e-05)
(7.46146 -0.0498402 -1.6908e-05)
(7.4637 -0.0381332 1.82811e-05)
(7.46559 -0.0283984 -1.96354e-05)
(7.46686 -0.0202866 2.13245e-05)
(7.46801 -0.0134465 -2.30004e-05)
(7.46866 -0.00773202 2.50711e-05)
(7.46926 -0.00289617 -2.70507e-05)
(7.46946 0.00112726 2.92996e-05)
(7.46971 0.00453007 -3.24581e-05)
(7.4697 0.00736679 3.37557e-05)
(7.46973 0.00966017 -3.54867e-05)
(7.46944 0.0115627 3.74078e-05)
(7.46923 0.0130701 -3.90032e-05)
(7.46876 0.014331 4.09047e-05)
(7.46841 0.0152842 -4.2217e-05)
(7.46783 0.0160983 4.39594e-05)
(7.46739 0.0166528 -4.52046e-05)
(7.46676 0.0171488 4.59014e-05)
(7.46627 0.0173949 -4.87727e-05)
(7.4656 0.0176677 5.08385e-05)
(7.46508 0.0176935 -5.25546e-05)
(7.46439 0.0178397 5.53067e-05)
(7.46385 0.0177041 -5.75521e-05)
(7.46315 0.0177787 6.05445e-05)
(7.46259 0.0175049 -6.35295e-05)
(7.46189 0.0175543 6.69017e-05)
(7.4613 0.0171583 -7.12238e-05)
(7.46058 0.0172309 7.50851e-05)
(7.45993 0.0167284 -8.08393e-05)
(7.45911 0.0168779 8.43608e-05)
(7.45829 0.0162875 -9.63204e-05)
(7.45722 0.016668 0.000102136)
(7.45574 0.0160346 -0.000126177)
(7.45378 0.0169702 0.000131598)
(7.45056 0.0165248 -0.000207617)
(7.44558 0.0189606 0.000199448)
(7.43774 0.0189331 -0.000426222)
(7.42505 0.0245623 0.000189524)
(7.41337 0.0239055 -0.000116315)
(7.38584 0.0291248 -0.00158791)
(7.42284 -0.0313792 -0.00406297)
(7.519 -0.0309789 -0.0129899)
(7.65264 0.0643904 -9.25566e-07)
(7.55614 0.110537 2.18472e-06)
(7.51789 0.10596 1.35677e-06)
(7.51701 0.0933448 3.13517e-06)
(7.52107 0.0826537 -1.44409e-06)
(7.52502 0.0747427 2.11942e-06)
(7.53128 0.0664237 -2.39837e-06)
(7.5393 0.0583079 2.60768e-06)
(7.54781 0.0511507 -3.1548e-06)
(7.55632 0.0448115 3.26677e-06)
(7.56494 0.0393321 -3.89839e-06)
(7.57361 0.034574 4.04452e-06)
(7.58223 0.0305282 -4.7333e-06)
(7.59079 0.0269852 4.9378e-06)
(7.59926 0.0239768 -5.6654e-06)
(7.60771 0.0213079 6.00731e-06)
(7.61605 0.0190577 -6.87139e-06)
(7.6244 0.0170015 7.37535e-06)
(7.63262 0.0152549 -8.43955e-06)
(7.64088 0.0136523 9.22048e-06)
(7.64897 0.0123437 -1.05607e-05)
(7.65716 0.0111216 1.17788e-05)
(7.66513 0.0101621 -1.34667e-05)
(7.67326 0.00923194 1.51959e-05)
(7.6811 0.00854848 -1.73066e-05)
(7.68917 0.00786636 1.97639e-05)
(7.69689 0.00740247 -2.18988e-05)
(7.70493 0.00687892 2.42518e-05)
(7.71253 0.00655563 -2.65831e-05)
(7.72054 0.00614324 2.9789e-05)
(7.72799 0.00591756 -3.31177e-05)
(7.73596 0.00558055 3.57081e-05)
(7.74323 0.005421 -3.93039e-05)
(7.75118 0.00514634 4.11754e-05)
(7.75827 0.00504214 -4.50134e-05)
(7.76619 0.00483915 4.5825e-05)
(7.77306 0.00480369 -4.98072e-05)
(7.78093 0.00472412 5.08665e-05)
(7.78749 0.00483136 -5.23866e-05)
(7.79519 0.00505202 4.24684e-05)
(7.80119 0.00559687 -5.09985e-05)
(7.80832 0.00660608 3.60405e-05)
(7.81292 0.00861001 -7.69186e-05)
(7.81829 0.0113078 0.000141094)
(7.81818 0.0204557 -0.000472524)
(7.81856 0.0271584 0.000272955)
(7.79194 0.0465115 -0.00189006)
(7.78202 0.0605893 0.000469411)
(7.62669 0.0211237 -0.00509362)
(7.49974 -0.0273302 -0.00309559)
(7.56499 7.21491e-07 -4.55703e-07)
(7.52817 2.17592e-10 4.53773e-07)
(7.49643 -6.98527e-07 7.95457e-07)
(7.50106 -3.61941e-07 7.64226e-07)
(7.51452 -1.60257e-07 -4.65537e-07)
(7.52693 -7.61985e-07 -4.07367e-08)
(7.53741 -8.22399e-07 -8.02932e-07)
(7.54901 -2.11397e-07 1.41122e-07)
(7.56074 -1.22138e-06 -9.52136e-07)
(7.57192 7.74647e-07 3.78131e-07)
(7.58276 -2.34671e-06 -1.1515e-06)
(7.59322 2.05753e-06 6.67147e-07)
(7.60341 -3.78057e-06 -1.34961e-06)
(7.61325 3.70421e-06 9.40403e-07)
(7.62294 -5.47308e-06 -1.56355e-06)
(7.63237 5.69624e-06 1.24764e-06)
(7.64174 -7.44865e-06 -1.79572e-06)
(7.65092 7.74173e-06 1.45173e-06)
(7.66011 -9.7009e-06 -2.11266e-06)
(7.66912 9.92279e-06 1.80932e-06)
(7.67819 -1.20313e-05 -2.41707e-06)
(7.68705 1.23204e-05 2.23974e-06)
(7.69603 -1.43106e-05 -2.78365e-06)
(7.7048 1.4669e-05 2.68524e-06)
(7.71376 -1.60198e-05 -3.18602e-06)
(7.72245 1.71608e-05 3.12723e-06)
(7.73136 -1.72772e-05 -3.79797e-06)
(7.73995 1.85331e-05 3.39734e-06)
(7.74884 -1.6342e-05 -4.15558e-06)
(7.75735 1.96043e-05 3.53966e-06)
(7.76625 -1.19751e-05 -3.98904e-06)
(7.77466 2.26275e-05 2.83897e-06)
(7.78359 3.6139e-06 -2.64874e-06)
(7.7919 3.55285e-05 3.73525e-07)
(7.80088 4.87998e-05 -1.96097e-08)
(7.80908 8.696e-05 -2.94869e-06)
(7.81812 0.000182985 3.01111e-07)
(7.82618 0.000278229 2.10511e-06)
(7.83531 0.000579092 2.99463e-06)
(7.84321 0.000936049 -2.07371e-05)
(7.85245 0.00183674 -6.98675e-06)
(7.86009 0.00314369 -1.94926e-05)
(7.86935 0.00569839 -8.77274e-06)
(7.87619 0.0104524 -0.000149755)
(7.88468 0.016228 0.000214983)
(7.88741 0.0396465 -0.000528244)
(7.88886 0.0560209 -0.0002977)
(7.83795 0.129295 -0.000446154)
(7.7798 0.181038 -0.000448265)
(7.46329 0.335342 0.00207799)
(7.65265 -0.0643866 -4.19863e-07)
(7.55614 -0.110539 -4.1854e-07)
(7.51789 -0.105973 2.18995e-07)
(7.51701 -0.0933535 1.40559e-06)
(7.52107 -0.0826439 -9.09462e-08)
(7.52501 -0.074755 3.01766e-07)
(7.53129 -0.0664116 -4.76506e-07)
(7.53929 -0.0583238 4.03755e-07)
(7.54782 -0.0511349 -6.67513e-07)
(7.55629 -0.0448311 5.65584e-07)
(7.56497 -0.0393116 -8.47942e-07)
(7.57357 -0.0345981 7.7635e-07)
(7.58227 -0.0305027 -1.05511e-06)
(7.59074 -0.0270145 1.01802e-06)
(7.59932 -0.0239455 -1.30106e-06)
(7.60764 -0.0213429 1.32057e-06)
(7.61612 -0.0190199 -1.62696e-06)
(7.62431 -0.0170425 1.6897e-06)
(7.63271 -0.0152102 -2.05419e-06)
(7.64077 -0.0137016 2.15403e-06)
(7.64909 -0.0122911 -2.56353e-06)
(7.65702 -0.0111794 2.78477e-06)
(7.66529 -0.0101007 -3.189e-06)
(7.67308 -0.00929862 3.52858e-06)
(7.6813 -0.00847789 -3.98633e-06)
(7.68895 -0.00794225 4.30895e-06)
(7.69713 -0.00732198 -5.14465e-06)
(7.70466 -0.0069624 5.54124e-06)
(7.71283 -0.00646407 -6.59488e-06)
(7.72022 -0.00623312 6.77355e-06)
(7.72835 -0.00581189 -7.66552e-06)
(7.73558 -0.00566984 7.6836e-06)
(7.74367 -0.00528824 -8.6211e-06)
(7.75076 -0.00521357 8.13861e-06)
(7.75883 -0.00484044 -9.58461e-06)
(7.76577 -0.00481334 8.49444e-06)
(7.77385 -0.00440003 -1.05045e-05)
(7.78069 -0.00434451 9.87646e-06)
(7.78887 -0.00384318 -1.19638e-05)
(7.79572 -0.00364203 2.70702e-06)
(7.80428 -0.002606 -2.49245e-05)
(7.81153 -0.00169893 -7.8168e-06)
(7.82116 0.00106018 -4.10799e-05)
(7.82951 0.00374486 -5.66751e-05)
(7.84308 0.0138428 -0.000144712)
(7.85465 0.0208666 -1.52604e-05)
(7.88223 0.0740806 -0.000101954)
(7.88811 0.0982711 0.000236194)
(7.89722 0.362717 0.000519941)
(7.80474 0.522589 0.00038746)
(7.37816 0.333762 -2.91631e-07)
(7.41143 0.267567 2.71548e-07)
(7.43684 0.207711 -8.2106e-07)
(7.44242 0.165692 1.31704e-06)
(7.44652 0.130741 -9.36466e-07)
(7.45049 0.10307 1.33463e-06)
(7.45473 0.0814252 -9.38662e-07)
(7.45841 0.0641175 1.57597e-06)
(7.46144 0.0498418 -9.71616e-07)
(7.46372 0.0381314 1.69898e-06)
(7.46557 0.0283994 -1.04347e-06)
(7.46689 0.0202859 1.76528e-06)
(7.46799 0.0134463 -1.11493e-06)
(7.46868 0.007733 1.80774e-06)
(7.46924 0.00289426 -1.16799e-06)
(7.46948 -0.00112396 1.85617e-06)
(7.46969 -0.00453434 -1.20263e-06)
(7.46972 -0.00736095 1.99082e-06)
(7.46971 -0.00966777 -1.40137e-06)
(7.46946 -0.0115538 2.09559e-06)
(7.46921 -0.0130817 -1.63157e-06)
(7.46878 -0.0143174 2.38393e-06)
(7.46838 -0.0153011 -1.89914e-06)
(7.46785 -0.0160787 2.74561e-06)
(7.46737 -0.0166768 -2.18917e-06)
(7.46678 -0.0171219 3.16373e-06)
(7.46625 -0.017428 -2.37727e-06)
(7.46564 -0.0176284 3.12771e-06)
(7.46506 -0.0177386 -2.58405e-06)
(7.46443 -0.0177844 3.11556e-06)
(7.46383 -0.0177636 -2.64142e-06)
(7.4632 -0.0177007 2.96941e-06)
(7.46259 -0.0175783 -2.62417e-06)
(7.46198 -0.01744 2.45079e-06)
(7.46137 -0.0172342 -2.44768e-06)
(7.46083 -0.017046 1.70816e-06)
(7.46021 -0.0167562 -2.4548e-06)
(7.45984 -0.0165063 8.63588e-07)
(7.45964 -0.0161611 -2.34523e-06)
(7.45915 -0.0154878 -7.56856e-06)
(7.45947 -0.0153004 -1.65904e-05)
(7.46115 -0.0138716 -1.34443e-05)
(7.46233 -0.0131619 -4.67981e-06)
(7.47025 -0.0099703 -7.60044e-05)
(7.47444 -0.0078933 1.74901e-05)
(7.50658 0.00325748 -5.504e-05)
(7.51967 0.0115436 0.000110425)
(7.68035 0.0659627 7.60248e-05)
(7.73656 0.10681 -2.02558e-05)
(8.38962 0.528746 0.000224666)
(7.46906 -0.35057 -0.0787407)
(7.48119 -0.291404 -0.112528)
(7.49446 -0.233794 -0.122122)
(7.49636 -0.19236 -0.114824)
(7.49292 -0.158698 -0.108229)
(7.48906 -0.132035 -0.100948)
(7.4862 -0.111087 -0.0923802)
(7.4826 -0.0940597 -0.0837623)
(7.47917 -0.0798829 -0.0758491)
(7.47523 -0.0678839 -0.0687492)
(7.47195 -0.0577472 -0.0623999)
(7.4683 -0.0490099 -0.0566698)
(7.46534 -0.0415756 -0.0515855)
(7.46193 -0.0350721 -0.0470112)
(7.45923 -0.0295586 -0.0429783)
(7.45601 -0.024664 -0.0393243)
(7.45349 -0.0205617 -0.0361175)
(7.45033 -0.016857 -0.0332125)
(7.44797 -0.0137653 -0.030677)
(7.44496 -0.0109203 -0.0283811)
(7.44277 -0.00862308 -0.0263819)
(7.43983 -0.00644496 -0.0245462)
(7.43774 -0.0047617 -0.0229485)
(7.43483 -0.00308915 -0.0214644)
(7.43282 -0.00187785 -0.0201705)
(7.42991 -0.000593342 -0.0189577)
(7.42797 0.000231966 -0.017897)
(7.42503 0.00120935 -0.0169027)
(7.42313 0.00174745 -0.0160269)
(7.42016 0.00253149 -0.0152118)
(7.4183 0.0028528 -0.014478)
(7.41529 0.00350994 -0.0138051)
(7.41346 0.00365497 -0.0131764)
(7.41041 0.00424526 -0.0126199)
(7.4086 0.00423293 -0.0120698)
(7.40549 0.00481795 -0.0116124)
(7.40365 0.00465369 -0.0111187)
(7.40042 0.00531161 -0.0107494)
(7.39841 0.00501128 -0.0102958)
(7.39486 0.00586201 -0.0100086)
(7.39226 0.00552693 -0.00957695)
(7.38767 0.00683943 -0.00936932)
(7.38336 0.00680494 -0.0090126)
(7.37562 0.00930047 -0.0087828)
(7.36637 0.010179 -0.00869112)
(7.35187 0.0151087 -0.00897532)
(7.33176 0.0170235 -0.00996253)
(7.31166 0.0115069 -0.0166045)
(7.30688 -0.0103908 -0.0168038)
(7.40243 -0.176919 -0.0597275)
(7.72387 0.056272 -0.0562739)
(7.59813 0.0979028 -0.0978712)
(7.55569 0.0980943 -0.0983241)
(7.5481 0.0890475 -0.0889566)
(7.5428 0.0804898 -0.0804233)
(7.53932 0.07131 -0.071323)
(7.53936 0.0616209 -0.0616068)
(7.54168 0.052429 -0.0524384)
(7.54534 0.0443676 -0.0443564)
(7.54968 0.0373042 -0.0373163)
(7.55486 0.031234 -0.0312199)
(7.56046 0.0260121 -0.0260273)
(7.56658 0.0216088 -0.0215911)
(7.57286 0.0178341 -0.017853)
(7.57949 0.0146835 -0.0146614)
(7.58614 0.011974 -0.0119973)
(7.59305 0.00974265 -0.00971461)
(7.59988 0.00783563 -0.00786392)
(7.60693 0.00633566 -0.00630455)
(7.61384 0.00501664 -0.00504913)
(7.62095 0.00399774 -0.00396239)
(7.62787 0.00306613 -0.00310291)
(7.63496 0.00237781 -0.00233822)
(7.64183 0.00171787 -0.00175866)
(7.64886 0.00126292 -0.00121969)
(7.65561 0.00078978 -0.000833604)
(7.66253 0.0004848 -0.000438943)
(7.66919 0.000145569 -0.000190295)
(7.67601 -3.4659e-05 8.21565e-05)
(7.68254 -0.000243547 0.000200878)
(7.68923 -0.000326849 0.000374286)
(7.69561 -0.000432776 0.000398829)
(7.70216 -0.00046117 0.000511076)
(7.70838 -0.0004788 0.000469219)
(7.71477 -0.00047724 0.000542648)
(7.72081 -0.00039577 0.000453413)
(7.72701 -0.000369555 0.000500349)
(7.73283 -0.000124717 0.000379312)
(7.73875 -1.5544e-05 0.000410544)
(7.74421 0.000579868 0.000264342)
(7.74964 0.00102395 0.000295953)
(7.7543 0.0026057 0.00013473)
(7.75868 0.00399275 0.000151368)
(7.7603 0.00928055 -8.16958e-05)
(7.76182 0.0139266 -4.12617e-05)
(7.74918 0.0290135 -0.000369052)
(7.74486 0.0401884 -0.00141336)
(7.67254 0.0532087 -0.00386696)
(7.63547 0.047377 -0.00363232)
(7.30671 -0.0955822 -0.0171781)
(7.65268 6.51092e-07 -0.06441)
(7.556 -1.89674e-06 -0.110314)
(7.51806 -2.68603e-06 -0.107585)
(7.51708 9.39779e-07 -0.0926418)
(7.52095 -4.34877e-06 -0.0823889)
(7.52495 3.72885e-06 -0.0747111)
(7.53127 -5.54065e-06 -0.0664031)
(7.53927 5.70454e-06 -0.0583096)
(7.5478 -7.45741e-06 -0.051145)
(7.55628 8.34498e-06 -0.0448167)
(7.56494 -1.02672e-05 -0.0393254)
(7.57357 1.15581e-05 -0.0345807)
(7.58224 -1.3856e-05 -0.03052)
(7.59074 1.5602e-05 -0.0269935)
(7.59929 -1.81979e-05 -0.0239668)
(7.60765 2.03992e-05 -0.0213179)
(7.61609 -2.33969e-05 -0.019046)
(7.62433 2.58887e-05 -0.0170132)
(7.63267 -2.91483e-05 -0.0152415)
(7.6408 3.18194e-05 -0.0136659)
(7.64904 -3.53296e-05 -0.0123286)
(7.65706 3.82525e-05 -0.0111368)
(7.66523 -4.17324e-05 -0.0101457)
(7.67313 4.48801e-05 -0.00924816)
(7.68123 -4.79874e-05 -0.00853158)
(7.68902 5.20672e-05 -0.00788272)
(7.69705 -5.28049e-05 -0.00738581)
(7.70475 5.7127e-05 -0.00689284)
(7.71273 -5.6166e-05 -0.00654032)
(7.72032 6.33779e-05 -0.00615283)
(7.72823 -5.78836e-05 -0.00590386)
(7.73569 7.23566e-05 -0.00558059)
(7.74354 -4.992e-05 -0.00540449)
(7.75087 9.25321e-05 -0.0051237)
(7.75866 -1.4607e-05 -0.00500603)
(7.76585 0.000152569 -0.00475378)
(7.7736 0.000105263 -0.00470303)
(7.78064 0.000349152 -0.00444409)
(7.78835 0.000489856 -0.00444)
(7.79524 0.00100354 -0.00423878)
(7.80293 0.00172036 -0.00428772)
(7.80959 0.00319583 -0.00401848)
(7.81707 0.00552167 -0.00415942)
(7.82314 0.0106456 -0.00386637)
(7.82979 0.0166402 -0.00400163)
(7.83078 0.0399792 -0.00356669)
(7.83206 0.0572673 -0.00541971)
(7.77365 0.128086 -0.00326243)
(7.70928 0.183047 -0.012414)
(7.40449 0.322965 0.0029643)
(7.72388 -0.0562583 -0.0562661)
(7.59814 -0.0979175 -0.0978778)
(7.55568 -0.0980945 -0.0983256)
(7.5481 -0.0890614 -0.0889599)
(7.5428 -0.0804804 -0.080424)
(7.53932 -0.0713248 -0.0713249)
(7.53936 -0.061608 -0.0616079)